ITEM: TIMESTEP
0
ITEM: NUMBER OF ATOMS
930
ITEM: BOX BOUNDS pp pp pp
-7.8672687265161557e+01 -6.2283127348230707e+00
-7.8672687265161557e+01 -6.2283127348230707e+00
-1.0000000000000000e+00 1.0000000000000000e+00
ITEM: ATOMS id type xs ys zs
837 1 0.00178816 0.00309456 0.530716
838 1 0.0153514 0.000746915 0.480221
105 3 0.0405432 0.00981724 0.500656
104 1 0.0440379 0.0255689 0.484835
103 1 0.045305 0.0393322 0.513505
762 1 0.203037 0.0103009 0.505522
761 1 0.207529 0.023556 0.485575
760 1 0.210689 0.036812 0.503591
155 4 0.218057 0.0131594 0.500248
154 4 0.22106 0.0269741 0.480933
153 2 0.22459 0.0404801 0.482732
605 3 0.304184 0.040062 0.503344
426 4 0.514735 0.00929532 0.507343
425 1 0.523365 0.0200632 0.482174
424 2 0.531183 0.0313251 0.508917
616 1 0.612558 0.0244288 0.495232
615 1 0.613755 0.0106355 0.502729
617 3 0.609487 0.0381565 0.501761
139 2 0.737119 0.00842041 0.488122
907 2 0.740305 0.0234768 0.508696
908 1 0.742313 0.0367575 0.500845
140 1 0.724922 0.00204628 0.509391
243 2 0.751889 0.0130923 0.486865
244 4 0.757703 0.000654552 0.485215
699 1 0.944287 0.0355375 0.504826
698 1 0.953961 0.0257943 0.48152
697 2 0.962661 0.0149606 0.503044
835 2 0.974302 0.00453099 0.489756
836 1 0.988124 0.00458735 0.514582
901 1 0.0294317 0.0791342 0.511098
900 2 0.0393495 0.0695333 0.498055
102 4 0.0473146 0.0528972 0.479631
101 4 0.0485341 0.066602 0.488244
50 2 0.0541932 0.0652052 0.482956
51 1 0.0665814 0.0708258 0.49651
100 2 0.0503986 0.0802375 0.485331
52 4 0.0787583 0.0773557 0.487061
669 1 0.204898 0.0746015 0.497675
670 1 0.193054 0.0819413 0.493586
759 2 0.21289 0.0504968 0.505666
668 2 0.215642 0.0656572 0.496573
599 2 0.227516 0.0556797 0.505828
600 1 0.240648 0.0614309 0.491083
824 2 0.230182 0.0706428 0.516995
825 4 0.24313 0.0741204 0.495613
601 4 0.254502 0.063507 0.510708
826 4 0.255422 0.0803235 0.532175
603 1 0.280831 0.0553399 0.497119
602 4 0.268248 0.0611614 0.513736
604 1 0.292936 0.0484226 0.517053
406 2 0.540798 0.0436178 0.482839
452 2 0.525405 0.0457257 0.526531
453 1 0.530304 0.0587489 0.487638
454 1 0.536899 0.0709509 0.477519
408 1 0.568119 0.046338 0.514307
409 1 0.581998 0.0469733 0.499609
407 4 0.554316 0.0460651 0.51849
455 1 0.544762 0.0822553 0.523473
410 3 0.595761 0.045596 0.509443
886 3 0.60887 0.0535008 0.481023
885 4 0.61542 0.0660066 0.495518
884 1 0.622695 0.0776737 0.504622
909 1 0.744056 0.0504548 0.497161
910 1 0.744219 0.0643901 0.495502
911 1 0.743558 0.077953 0.482757
722 3 0.865991 0.0781878 0.487054
703 1 0.903963 0.0732187 0.519093
702 1 0.914922 0.0651239 0.51014
704 1 0.892132 0.0805244 0.512205
700 1 0.934351 0.0453514 0.528062
701 4 0.925057 0.0557997 0.502079
902 1 0.0210797 0.0899437 0.494431
903 4 0.013797 0.101718 0.492537
904 1 0.00881041 0.11462 0.518555
53 1 0.0903501 0.0845496 0.509929
54 1 0.101629 0.0925773 0.500888
55 3 0.111844 0.102122 0.465309
777 3 0.120326 0.114938 0.498887
673 1 0.153887 0.0938214 0.508964
675 3 0.127257 0.101043 0.485452
674 1 0.140483 0.0970216 0.508867
671 1 0.180159 0.0868875 0.491218
672 1 0.167073 0.0903681 0.494539
827 1 0.265654 0.0901313 0.506452
828 1 0.276344 0.0992763 0.485852
829 1 0.286331 0.108937 0.504214
830 3 0.294734 0.119517 0.49175
518 1 0.335933 0.124023 0.520452
516 1 0.363126 0.123551 0.512008
517 1 0.349559 0.12353 0.508005
515 1 0.377183 0.122564 0.484206
514 1 0.390922 0.122785 0.483431
513 2 0.404708 0.122688 0.472649
456 1 0.553553 0.0926079 0.49748
457 1 0.563882 0.101718 0.501474
458 3 0.575017 0.110119 0.506105
6 3 0.560183 0.115145 0.491581
385 4 0.6128 0.119379 0.499667
387 4 0.585385 0.123529 0.488157
386 1 0.598971 0.121276 0.492203
384 2 0.626572 0.118011 0.494571
883 1 0.629248 0.0898507 0.500152
882 1 0.634753 0.102365 0.478166
881 2 0.641596 0.114616 0.499391
237 1 0.666107 0.124574 0.49681
242 3 0.734141 0.119226 0.497077
861 3 0.749539 0.119148 0.479488
912 1 0.742341 0.0916978 0.492601
913 3 0.741608 0.105687 0.496182
636 3 0.757002 0.10543 0.490774
635 4 0.770124 0.110508 0.518154
634 1 0.782718 0.115817 0.504965
633 2 0.795184 0.121752 0.501934
718 1 0.820597 0.109199 0.503528
717 2 0.810495 0.119061 0.493172
719 1 0.831675 0.100891 0.523575
721 1 0.854111 0.085112 0.505651
720 1 0.842635 0.0924561 0.471693
705 3 0.879392 0.0859916 0.506492
905 1 0.00519526 0.128084 0.488375
62 1 0.0232355 0.162299 0.500073
63 3 0.0121544 0.154337 0.49514
906 3 0.00320543 0.141743 0.511507
772 1 0.0740058 0.166485 0.476254
773 1 0.084713 0.157883 0.487104
776 4 0.112588 0.126512 0.470284
774 1 0.094541 0.147632 0.494045
775 1 0.104409 0.13785 0.501473
520 3 0.308352 0.127103 0.519893
519 1 0.322415 0.125473 0.521306
359 2 0.41408 0.135235 0.490263
360 1 0.420371 0.147393 0.492822
361 4 0.425404 0.160296 0.49522
3 1 0.540912 0.152048 0.501142
2 1 0.536144 0.165016 0.495388
4 1 0.547539 0.139872 0.486535
5 4 0.554317 0.127863 0.507211
388 3 0.57191 0.125273 0.498697
236 2 0.652107 0.125885 0.473968
85 1 0.629263 0.155878 0.499831
83 2 0.637074 0.129539 0.508457
84 1 0.631798 0.142183 0.494839
238 4 0.679814 0.125213 0.513435
239 1 0.693462 0.12681 0.523029
240 4 0.707622 0.127229 0.501203
241 4 0.721511 0.125025 0.495783
857 1 0.71678 0.162955 0.498088
858 1 0.722692 0.151043 0.501865
859 4 0.730175 0.139412 0.490309
860 1 0.740088 0.1296 0.498585
646 2 0.820514 0.131068 0.510721
887 2 0.805209 0.133644 0.51417
888 1 0.806597 0.147392 0.519576
889 4 0.807748 0.161191 0.499558
647 4 0.834071 0.134161 0.494483
648 1 0.847954 0.136475 0.494821
649 1 0.861646 0.136558 0.503968
650 1 0.875548 0.135822 0.525121
651 1 0.889155 0.133962 0.501287
652 3 0.902902 0.131847 0.497824
784 3 0.918073 0.134489 0.503407
783 1 0.925016 0.14666 0.500928
782 1 0.93031 0.159584 0.478136
61 1 0.0350108 0.168807 0.51805
60 2 0.0471351 0.175828 0.498278
771 2 0.0625163 0.174325 0.505732
373 1 0.0574433 0.202039 0.490195
372 2 0.0561053 0.188404 0.507601
642 1 0.173631 0.207304 0.48268
643 1 0.182035 0.196553 0.515018
644 1 0.191401 0.186291 0.519757
645 3 0.199702 0.175512 0.505038
440 3 0.215038 0.177035 0.489902
439 1 0.228793 0.179691 0.513785
438 1 0.242042 0.183192 0.494066
437 1 0.255372 0.186358 0.499888
436 1 0.268642 0.19011 0.516906
435 2 0.281389 0.195475 0.520679
344 2 0.291168 0.207462 0.511463
362 1 0.429949 0.173147 0.490364
363 3 0.435697 0.185882 0.493881
76 3 0.441935 0.200115 0.486321
818 3 0.42648 0.198324 0.495444
75 1 0.455422 0.202214 0.510129
72 4 0.49698 0.203596 0.491034
74 1 0.469182 0.205041 0.500321
73 4 0.483259 0.206099 0.497876
71 1 0.509453 0.197041 0.517396
70 2 0.520485 0.188189 0.481237
1 2 0.532805 0.17872 0.511206
550 2 0.535152 0.19406 0.511615
892 2 0.522962 0.203488 0.506371
551 1 0.547252 0.201647 0.49173
552 1 0.55967 0.207248 0.481849
556 1 0.613406 0.205342 0.519869
557 3 0.625823 0.199357 0.49644
87 3 0.626699 0.183786 0.494949
86 1 0.627902 0.169674 0.506407
470 3 0.639711 0.192277 0.484341
469 4 0.65286 0.196807 0.514166
302 3 0.63898 0.207705 0.492069
468 1 0.666179 0.200047 0.477357
467 1 0.679633 0.202272 0.482942
466 1 0.693507 0.203225 0.492847
855 2 0.707633 0.188801 0.522031
465 2 0.70711 0.204186 0.514637
856 4 0.711379 0.175397 0.512182
890 4 0.806968 0.174834 0.502307
891 3 0.805565 0.188656 0.512199
781 1 0.936356 0.17209 0.514623
780 4 0.943415 0.183833 0.495993
779 1 0.950847 0.195337 0.491853
778 2 0.957846 0.207118 0.502606
374 1 0.0587422 0.215769 0.507857
375 1 0.0604729 0.229374 0.498619
376 3 0.0636779 0.242658 0.497456
639 1 0.148298 0.239859 0.524631
640 1 0.155671 0.228279 0.492716
641 1 0.163992 0.2174 0.473021
345 1 0.295449 0.220847 0.493503
346 1 0.299661 0.233998 0.513893
347 1 0.303109 0.247325 0.501775
816 1 0.41107 0.221531 0.501291
815 1 0.405937 0.234352 0.498945
814 1 0.402628 0.247552 0.501345
817 1 0.418108 0.209555 0.510759
895 1 0.495251 0.232649 0.524818
896 1 0.490874 0.245578 0.507158
894 4 0.501509 0.220253 0.508937
893 4 0.511035 0.210327 0.504269
553 1 0.572912 0.210325 0.495327
555 1 0.60031 0.209389 0.518706
554 4 0.586589 0.211322 0.498032
301 4 0.638646 0.221504 0.497893
300 1 0.639055 0.235262 0.499775
299 1 0.639887 0.249085 0.504644
923 2 0.966837 0.219674 0.511715
924 1 0.96946 0.233268 0.498976
925 1 0.972502 0.246642 0.510145
559 1 0.0253233 0.280413 0.498289
560 1 0.0368563 0.272958 0.492619
558 2 0.0134047 0.287373 0.496045
561 1 0.0488259 0.265689 0.499513
525 3 0.0752033 0.253126 0.504635
562 3 0.0604002 0.257944 0.486051
524 1 0.0872542 0.260221 0.509152
523 1 0.0994585 0.266332 0.499157
522 4 0.112558 0.271143 0.512809
521 2 0.125125 0.27632 0.489104
638 1 0.14193 0.252161 0.467433
637 2 0.134918 0.264174 0.504725
250 2 0.140444 0.278609 0.510726
251 1 0.134163 0.290725 0.482737
348 1 0.306676 0.260514 0.499531
349 1 0.311995 0.273205 0.511235
350 1 0.318866 0.285135 0.489402
173 1 0.368033 0.288733 0.515624
171 2 0.391527 0.27441 0.497082
813 2 0.399837 0.261156 0.494545
870 2 0.406987 0.274951 0.490379
172 1 0.379895 0.281763 0.486226
871 1 0.418588 0.282607 0.515669
872 1 0.430768 0.28901 0.531332
898 1 0.488375 0.27323 0.494756
897 1 0.488978 0.259416 0.504755
899 3 0.487742 0.288768 0.49482
298 1 0.642401 0.262916 0.491187
297 2 0.645371 0.276576 0.519107
33 2 0.65225 0.290389 0.488747
134 2 0.636761 0.289532 0.502539
927 1 0.979489 0.273577 0.510416
926 1 0.975964 0.260157 0.499894
928 4 0.983886 0.286733 0.506082
254 1 0.120426 0.329587 0.516791
253 1 0.12355 0.316311 0.493986
252 1 0.128866 0.303657 0.491618
56 2 0.275465 0.311734 0.498135
57 1 0.289299 0.310491 0.496582
351 3 0.327397 0.296244 0.51286
58 4 0.303044 0.30905 0.509401
59 3 0.316942 0.307619 0.506915
43 3 0.331991 0.311036 0.49398
42 1 0.327414 0.324135 0.493209
175 3 0.342467 0.299659 0.50312
174 1 0.355631 0.295036 0.511839
873 1 0.443854 0.293127 0.488653
874 1 0.457473 0.295333 0.504021
875 3 0.473403 0.296096 0.498176
748 3 0.487115 0.304481 0.505555
747 1 0.486614 0.3199 0.494047
746 1 0.484503 0.333205 0.504994
579 3 0.501487 0.297413 0.477922
577 1 0.530916 0.300468 0.509103
578 1 0.517409 0.297722 0.501613
575 2 0.557093 0.309725 0.489678
576 1 0.544218 0.304637 0.502991
137 1 0.61183 0.322006 0.506251
136 4 0.618752 0.310175 0.506221
34 1 0.665115 0.295186 0.500506
135 1 0.627084 0.299101 0.503609
35 1 0.678206 0.299887 0.498113
36 3 0.690607 0.305583 0.513838
64 2 0.825043 0.33333 0.513314
930 3 0.988574 0.31381 0.48197
929 1 0.986816 0.300298 0.488587
255 1 0.114924 0.342325 0.502817
296 3 0.100065 0.366531 0.497665
256 3 0.110466 0.355203 0.522074
288 3 0.115063 0.369919 0.487914
295 1 0.0874188 0.371851 0.509925
598 3 0.206285 0.344709 0.506975
597 1 0.217866 0.352287 0.498017
596 1 0.230329 0.358424 0.504722
595 4 0.242993 0.363488 0.495273
594 1 0.256061 0.368331 0.484749
593 2 0.26853 0.37457 0.49529
38 1 0.295186 0.368835 0.495433
41 1 0.321952 0.336809 0.498217
39 1 0.305778 0.359545 0.501055
40 1 0.314725 0.349087 0.468029
447 2 0.37319 0.36868 0.493875
745 1 0.481085 0.346804 0.487876
744 1 0.47671 0.359911 0.5176
743 1 0.471851 0.372944 0.4964
138 3 0.604339 0.333585 0.522861
119 3 0.604285 0.348946 0.521163
118 1 0.603218 0.362676 0.489315
67 1 0.7848 0.342101 0.510556
68 1 0.771632 0.345844 0.484043
69 3 0.758194 0.348596 0.463966
66 1 0.798085 0.338805 0.51253
65 1 0.811363 0.335151 0.495931
496 2 0.836672 0.343279 0.486388
497 1 0.845144 0.354237 0.500144
498 1 0.85486 0.363671 0.514832
499 1 0.864748 0.373427 0.500779
290 1 0.0234094 0.396325 0.499405
289 2 0.0111653 0.402821 0.512412
291 1 0.0358044 0.389938 0.491254
606 2 0.00184997 0.415179 0.486928
294 1 0.0748949 0.377158 0.494755
293 1 0.0619059 0.381459 0.486085
292 1 0.0488185 0.385205 0.476445
287 1 0.124651 0.379635 0.495273
286 1 0.133977 0.389988 0.504806
285 1 0.144524 0.399098 0.476297
284 2 0.155342 0.407543 0.501645
656 1 0.224246 0.408542 0.493902
655 1 0.234989 0.399932 0.498532
654 4 0.246577 0.392207 0.474609
37 2 0.283819 0.376657 0.494234
653 2 0.259098 0.386881 0.492085
876 2 0.274428 0.38901 0.508816
877 1 0.273044 0.402776 0.484987
878 1 0.270868 0.416259 0.501221
449 1 0.367221 0.39528 0.493998
450 1 0.362903 0.408453 0.494466
448 1 0.370513 0.381976 0.512353
740 2 0.452168 0.409343 0.494944
257 2 0.437034 0.411561 0.513991
741 1 0.45831 0.396766 0.502554
258 1 0.424082 0.416414 0.511695
742 1 0.465553 0.38529 0.500878
117 4 0.60302 0.376263 0.488627
116 1 0.603323 0.390081 0.484348
115 4 0.604095 0.403875 0.475704
921 1 0.87101 0.412116 0.50613
500 3 0.874367 0.383084 0.477602
922 3 0.874469 0.39857 0.481059
227 1 0.901291 0.38869 0.506828
228 3 0.887783 0.390743 0.492613
226 4 0.914906 0.387658 0.499744
225 1 0.929033 0.387692 0.504618
224 1 0.942591 0.38831 0.504912
223 1 0.956317 0.390466 0.494496
220 2 0.995942 0.400877 0.477057
222 1 0.969569 0.394012 0.500258
221 1 0.983033 0.396682 0.514331
607 1 0.00297681 0.428982 0.518309
608 1 0.00346698 0.442852 0.496129
609 4 0.00371562 0.456562 0.503161
658 1 0.20224 0.425426 0.494037
632 3 0.19132 0.449737 0.498003
659 3 0.191648 0.434109 0.504113
657 4 0.21304 0.416811 0.489317
879 1 0.266852 0.429503 0.5025
880 3 0.261245 0.442105 0.507615
44 2 0.289089 0.450957 0.486001
46 1 0.315756 0.444703 0.490521
45 1 0.30238 0.447501 0.508724
47 1 0.329211 0.442431 0.505878
48 1 0.342948 0.440842 0.518602
451 3 0.360074 0.421848 0.501685
49 3 0.356244 0.436995 0.507668
688 3 0.367384 0.447807 0.506828
262 3 0.371301 0.432749 0.497366
259 1 0.410888 0.42012 0.504405
260 1 0.397906 0.424414 0.485507
261 4 0.384799 0.428666 0.504337
687 1 0.377884 0.456677 0.496343
419 1 0.58687 0.454775 0.484785
114 1 0.603397 0.417597 0.470894
418 2 0.596752 0.445049 0.52566
310 2 0.612177 0.444525 0.491611
113 2 0.604106 0.431332 0.495243
311 1 0.624792 0.450051 0.498582
312 4 0.637307 0.455753 0.50204
281 1 0.796085 0.445993 0.47322
282 1 0.801378 0.433052 0.498253
283 3 0.805956 0.419898 0.501653
918 1 0.866397 0.453217 0.467993
919 1 0.867911 0.439515 0.49119
920 1 0.868939 0.42562 0.498117
611 3 0.00720128 0.48413 0.481979
610 1 0.00472212 0.470497 0.504977
203 3 0.0200094 0.493337 0.478572
202 1 0.0335759 0.495284 0.508674
383 3 0.00587563 0.499458 0.503975
201 1 0.0471803 0.497379 0.499687
628 1 0.15926 0.494439 0.492053
631 1 0.183704 0.461046 0.520044
629 1 0.168473 0.484172 0.503554
630 1 0.176305 0.4727 0.504837
29 1 0.222443 0.493641 0.520535
28 2 0.232283 0.484051 0.482484
686 1 0.388669 0.465731 0.513293
685 1 0.398912 0.474993 0.494624
684 1 0.410112 0.482462 0.503522
683 4 0.42122 0.49001 0.511212
682 1 0.43161 0.499023 0.481546
421 1 0.568597 0.47565 0.52626
422 1 0.559777 0.486202 0.502818
420 1 0.577806 0.465347 0.486742
423 3 0.551429 0.497584 0.524568
313 1 0.650144 0.460933 0.503266
314 1 0.66268 0.466111 0.525215
315 1 0.674903 0.472601 0.474979
316 1 0.687364 0.478181 0.490765
317 1 0.699478 0.484822 0.491447
318 3 0.711735 0.491548 0.520341
279 1 0.787376 0.472054 0.507813
278 4 0.78211 0.484761 0.493097
277 4 0.777002 0.497617 0.483343
280 4 0.791693 0.459 0.504051
915 1 0.864052 0.49438 0.510135
916 1 0.864796 0.480697 0.50466
917 1 0.865444 0.46697 0.514301
200 1 0.0608286 0.500254 0.497334
199 4 0.0739095 0.50467 0.492425
198 1 0.0862441 0.510842 0.495566
197 2 0.0975582 0.518726 0.501865
624 2 0.112403 0.522525 0.511258
120 2 0.101868 0.533768 0.494684
627 1 0.149066 0.503822 0.497971
625 1 0.125485 0.518305 0.504352
626 1 0.137629 0.511777 0.513074
32 3 0.191367 0.520804 0.499664
753 3 0.18467 0.534963 0.516297
31 1 0.202124 0.511987 0.516815
30 4 0.212327 0.503102 0.482409
681 2 0.442237 0.508096 0.497426
364 2 0.44368 0.523632 0.498187
365 1 0.438494 0.536431 0.48848
88 2 0.45629 0.51462 0.474258
90 4 0.483607 0.51219 0.501928
89 4 0.47031 0.513982 0.492723
91 1 0.497422 0.510727 0.508117
92 1 0.511148 0.509512 0.495791
93 1 0.524622 0.507779 0.513248
94 3 0.538214 0.505866 0.477125
274 3 0.551831 0.513063 0.5167
273 1 0.560064 0.524281 0.487946
272 4 0.568345 0.535284 0.481374
738 1 0.620075 0.5398 0.508475
739 3 0.626402 0.527361 0.510145
581 1 0.743625 0.538676 0.48817
276 1 0.771145 0.509776 0.518311
275 2 0.766812 0.522752 0.498628
831 2 0.771599 0.537705 0.495994
580 2 0.756511 0.534358 0.520559
821 1 0.831575 0.533799 0.496859
819 2 0.856639 0.522036 0.489848
820 1 0.843781 0.527539 0.52169
914 2 0.863224 0.508095 0.505656
338 2 0.871959 0.520923 0.497935
339 1 0.881613 0.53068 0.51805
382 1 0.999405 0.511872 0.510578
381 1 0.995384 0.52523 0.502147
380 1 0.992587 0.538624 0.49122
124 1 0.0757466 0.581773 0.509489
123 1 0.0849382 0.570994 0.524978
121 1 0.098124 0.547008 0.502404
122 1 0.0923669 0.559556 0.490645
752 4 0.19321 0.545752 0.486641
751 1 0.201147 0.556964 0.505844
750 1 0.209613 0.567856 0.505275
749 2 0.219555 0.57773 0.513996
479 2 0.2348 0.579867 0.489156
480 1 0.247962 0.576001 0.492583
481 1 0.261256 0.571748 0.515962
482 4 0.274533 0.567674 0.502746
483 1 0.288158 0.565159 0.506087
484 1 0.301992 0.563964 0.494792
485 1 0.315748 0.564878 0.502239
486 1 0.329501 0.567445 0.524325
487 1 0.342681 0.572555 0.518956
488 1 0.354774 0.579546 0.508705
369 1 0.404722 0.578886 0.504314
368 4 0.41511 0.569958 0.504997
366 1 0.432266 0.548639 0.510936
367 1 0.424383 0.559755 0.504948
229 2 0.512917 0.55591 0.502982
230 1 0.517593 0.569028 0.486614
231 1 0.523115 0.581741 0.512034
271 1 0.57664 0.546488 0.502937
270 1 0.583372 0.558214 0.513804
269 2 0.590594 0.570051 0.522538
736 2 0.603839 0.562161 0.493355
737 4 0.611958 0.550963 0.494224
16 2 0.604151 0.577669 0.515837
17 1 0.617442 0.581319 0.482492
585 1 0.696744 0.568081 0.493052
586 1 0.687255 0.578039 0.492955
584 1 0.707534 0.559265 0.483494
582 1 0.731154 0.544797 0.514092
583 1 0.719165 0.551393 0.506673
832 1 0.781646 0.54706 0.501706
822 1 0.820331 0.541727 0.50783
833 4 0.792225 0.555923 0.483069
823 3 0.809643 0.55066 0.493266
834 3 0.802921 0.564497 0.475587
495 3 0.818296 0.563414 0.506451
494 4 0.826344 0.574744 0.497186
340 4 0.889686 0.541703 0.494121
341 1 0.895065 0.554383 0.500971
342 1 0.897437 0.567916 0.487542
343 3 0.897306 0.581448 0.494199
379 1 0.988303 0.55159 0.471285
378 1 0.9832 0.564416 0.487505
377 2 0.978381 0.577624 0.492996
160 1 0.0112016 0.621476 0.480015
159 1 0.000430712 0.613255 0.50474
125 1 0.066619 0.592115 0.51213
126 1 0.0565279 0.601809 0.493396
127 1 0.0480865 0.612536 0.506697
95 2 0.225472 0.592265 0.499456
96 1 0.224944 0.606335 0.48371
97 4 0.225176 0.620034 0.519946
489 3 0.36649 0.586807 0.500934
218 1 0.366679 0.61568 0.503977
219 3 0.368696 0.602026 0.485834
370 1 0.393217 0.58619 0.495932
371 3 0.380857 0.59221 0.512964
232 1 0.529181 0.594154 0.493735
233 1 0.533641 0.607183 0.505741
234 1 0.538058 0.620028 0.498006
678 1 0.574016 0.6078 0.499878
677 1 0.582017 0.596183 0.493892
679 4 0.565584 0.618885 0.48415
676 2 0.590754 0.585406 0.517254
18 1 0.630221 0.585777 0.49512
19 4 0.64341 0.589996 0.478674
20 3 0.656212 0.595247 0.4932
445 1 0.649025 0.61958 0.482715
446 3 0.659272 0.61037 0.503008
588 3 0.670841 0.600245 0.486244
587 1 0.679368 0.589577 0.490252
493 1 0.832111 0.58736 0.502369
618 2 0.823403 0.622052 0.471556
492 4 0.83625 0.60052 0.507798
619 4 0.835802 0.616153 0.493696
491 1 0.837702 0.614333 0.499501
620 4 0.84831 0.610532 0.527321
621 4 0.860447 0.603691 0.503679
622 1 0.872881 0.597452 0.518035
623 3 0.884633 0.590521 0.507673
196 3 0.898965 0.59692 0.492611
195 4 0.912778 0.595751 0.504858
193 1 0.939804 0.591905 0.504186
194 1 0.926497 0.593927 0.486134
192 1 0.953513 0.591379 0.502067
157 2 0.981807 0.592753 0.489274
191 2 0.967018 0.588403 0.491869
158 1 0.990494 0.603666 0.515187
128 3 0.0385078 0.625156 0.489702
161 3 0.0235253 0.630858 0.506901
790 3 0.02029 0.646808 0.510594
804 3 0.0355526 0.640899 0.509272
789 1 0.0108809 0.659492 0.516659
803 1 0.0478392 0.650552 0.502794
802 1 0.0594461 0.657489 0.504685
801 1 0.0718327 0.664121 0.491223
563 2 0.137759 0.626111 0.508763
564 1 0.150431 0.631184 0.506812
565 1 0.163871 0.634429 0.501217
566 4 0.177258 0.637912 0.506158
567 1 0.190154 0.642726 0.504337
568 4 0.202838 0.648322 0.501299
569 3 0.214773 0.655828 0.492926
98 1 0.227245 0.633831 0.499426
99 3 0.227689 0.647618 0.512198
869 3 0.228456 0.663075 0.494117
217 1 0.363508 0.629125 0.500199
215 1 0.354105 0.654706 0.500496
216 1 0.359475 0.642164 0.49058
504 1 0.52855 0.657546 0.508292
505 3 0.537104 0.646737 0.489938
235 3 0.543317 0.632774 0.485267
680 3 0.558716 0.630921 0.495957
716 3 0.552503 0.645154 0.501547
715 1 0.566099 0.647943 0.496904
714 1 0.579211 0.651876 0.491025
441 2 0.607102 0.655206 0.506079
713 2 0.591891 0.657927 0.498687
442 1 0.618193 0.646866 0.494642
444 1 0.638727 0.628425 0.51469
443 4 0.628685 0.638012 0.50691
325 3 0.734954 0.663416 0.505571
324 1 0.746892 0.656186 0.487728
323 1 0.759656 0.651246 0.501531
322 4 0.771939 0.645028 0.515805
321 1 0.784488 0.639127 0.505631
319 2 0.811131 0.631516 0.490217
320 4 0.797685 0.634999 0.504767
263 2 0.825466 0.637356 0.507385
264 1 0.821392 0.65064 0.482159
265 1 0.817328 0.6636 0.509845
490 2 0.837671 0.62797 0.497731
788 1 0.00497736 0.671947 0.497822
787 1 0.000326447 0.684754 0.520769
800 1 0.0842544 0.669949 0.507134
799 4 0.0962206 0.676308 0.491973
798 1 0.107716 0.684154 0.483639
797 1 0.117839 0.693631 0.486398
796 2 0.127678 0.703359 0.514778
539 1 0.154703 0.704598 0.507875
540 1 0.167396 0.698161 0.487657
541 1 0.180167 0.693059 0.495405
542 1 0.192369 0.6868 0.495847
543 1 0.203702 0.679171 0.511211
868 1 0.240661 0.669988 0.498718
544 3 0.215226 0.671262 0.49385
867 4 0.252468 0.677151 0.521491
866 1 0.264805 0.683292 0.470931
865 1 0.277954 0.688315 0.480629
864 1 0.291388 0.691528 0.497889
863 1 0.305035 0.694133 0.487326
862 2 0.318729 0.695712 0.517524
428 2 0.330903 0.70544 0.497935
212 2 0.333121 0.690139 0.470981
214 1 0.347705 0.666801 0.496591
213 1 0.340382 0.678171 0.50875
503 1 0.52139 0.669443 0.488411
502 1 0.515909 0.682213 0.510415
501 2 0.510942 0.695261 0.491702
106 2 0.601854 0.669746 0.475036
107 1 0.601329 0.683495 0.509395
108 1 0.601351 0.697263 0.511974
211 3 0.72187 0.67173 0.490807
210 1 0.721468 0.685601 0.502057
209 4 0.72117 0.699397 0.523644
268 3 0.804324 0.702845 0.510571
266 1 0.813048 0.676825 0.493989
267 1 0.808155 0.689665 0.505989
812 3 0.911105 0.690541 0.482722
811 1 0.923549 0.697234 0.489468
810 4 0.936249 0.702678 0.494091
809 1 0.94936 0.707426 0.490736
786 4 0.997556 0.698581 0.508275
304 1 0.0154632 0.727529 0.490088
305 1 0.0210356 0.740084 0.509663
303 2 0.0106698 0.714473 0.512129
805 2 0.000930807 0.72656 0.508353
9 1 0.115967 0.742941 0.471106
8 1 0.123465 0.731216 0.530093
538 2 0.141856 0.709595 0.510397
7 2 0.129472 0.718803 0.476966
534 1 0.245547 0.735259 0.513029
535 4 0.234592 0.743756 0.521413
533 1 0.256013 0.726502 0.498208
532 2 0.265344 0.716218 0.51194
429 1 0.339248 0.716671 0.494587
430 1 0.348481 0.726645 0.498046
431 1 0.358764 0.735892 0.529398
432 1 0.369551 0.744478 0.495028
109 1 0.599978 0.710815 0.498195
110 1 0.597227 0.724243 0.508566
111 1 0.594132 0.737584 0.515246
208 1 0.722408 0.712941 0.499816
207 4 0.72503 0.726237 0.475283
206 1 0.72869 0.739602 0.509257
808 1 0.962808 0.710811 0.500099
785 2 0.995337 0.712156 0.497845
807 1 0.976211 0.714268 0.500986
806 4 0.989164 0.71929 0.493129
306 1 0.0266876 0.752644 0.486949
307 1 0.0311848 0.765559 0.499004
308 1 0.0369106 0.778305 0.493114
14 4 0.0672499 0.790813 0.516134
13 1 0.0780366 0.782292 0.510269
309 3 0.042166 0.791269 0.495896
10 1 0.1079 0.754133 0.503298
12 1 0.0884729 0.77309 0.492107
11 1 0.0989273 0.76432 0.494956
536 1 0.222884 0.751039 0.49455
537 3 0.210228 0.756709 0.499406
433 1 0.380237 0.75301 0.50784
434 3 0.391584 0.761008 0.492375
729 3 0.400671 0.773725 0.493811
854 3 0.385131 0.774992 0.516198
728 1 0.414209 0.773128 0.49079
853 4 0.383498 0.788632 0.493689
727 1 0.427724 0.770478 0.507778
726 1 0.440941 0.766371 0.499571
725 1 0.454195 0.762242 0.496057
723 2 0.480574 0.754635 0.496425
21 2 0.495676 0.758585 0.479474
724 1 0.466942 0.758003 0.50057
22 1 0.509527 0.759892 0.489192
23 1 0.523319 0.760279 0.508965
24 4 0.537283 0.760965 0.515752
27 3 0.578432 0.761669 0.48801
26 1 0.564541 0.761375 0.480925
25 4 0.550985 0.760575 0.489886
112 3 0.589159 0.750241 0.494563
152 3 0.593533 0.764994 0.499317
151 1 0.599835 0.777515 0.509447
150 1 0.605403 0.790157 0.517379
326 2 0.737448 0.78095 0.48997
205 1 0.733471 0.752576 0.503987
204 2 0.738454 0.76548 0.489753
791 2 0.751286 0.774013 0.510122
792 1 0.7651 0.774768 0.506854
793 4 0.778932 0.775134 0.509452
794 1 0.792712 0.77537 0.500775
170 3 0.821782 0.778289 0.503627
795 3 0.806292 0.777162 0.509466
850 3 0.813108 0.791086 0.500188
169 1 0.834609 0.783636 0.501803
168 1 0.847431 0.788333 0.499455
529 1 0.0222629 0.825819 0.509875
530 1 0.0326081 0.816297 0.508159
531 3 0.0426626 0.806924 0.510991
15 3 0.0558391 0.79853 0.502666
770 3 0.0563906 0.814041 0.512173
769 4 0.0697711 0.817846 0.517527
768 1 0.0833138 0.820597 0.503476
767 1 0.097128 0.822659 0.509916
766 1 0.110561 0.824296 0.509503
765 1 0.124171 0.826383 0.501789
764 2 0.138 0.82846 0.486795
352 2 0.153179 0.825742 0.481903
353 1 0.166623 0.8227 0.47654
354 1 0.180152 0.820707 0.524668
355 4 0.193998 0.818616 0.490699
356 1 0.208012 0.817162 0.515828
357 1 0.22169 0.816125 0.510537
358 3 0.235535 0.815672 0.500849
417 3 0.248304 0.824364 0.486434
851 2 0.377125 0.815484 0.494082
852 1 0.380275 0.802051 0.47697
149 1 0.60902 0.803381 0.509585
148 4 0.613423 0.816099 0.504576
147 1 0.615863 0.829655 0.515836
330 3 0.704277 0.825129 0.521448
190 3 0.689032 0.822336 0.50364
189 1 0.677537 0.829833 0.516715
327 1 0.729576 0.792131 0.499443
328 1 0.722277 0.803822 0.491583
329 1 0.713602 0.814927 0.504704
849 4 0.815534 0.804542 0.496523
848 1 0.817859 0.81774 0.500467
847 1 0.818034 0.831668 0.478155
167 4 0.860799 0.792355 0.502385
166 1 0.874126 0.795119 0.518387
165 1 0.887577 0.798234 0.49663
164 1 0.901366 0.799866 0.481316
163 1 0.915317 0.80062 0.503161
162 2 0.92908 0.80216 0.477453
528 1 0.0121775 0.835211 0.485544
527 1 0.00155289 0.843947 0.517071
416 1 0.253479 0.837207 0.511004
415 1 0.258159 0.850214 0.500804
414 1 0.262285 0.863405 0.491461
512 3 0.430971 0.873005 0.500581
82 3 0.541606 0.874827 0.488116
81 1 0.555097 0.872311 0.497999
80 4 0.569145 0.871677 0.490589
79 1 0.582898 0.86975 0.529113
78 1 0.596287 0.866935 0.480632
77 2 0.609904 0.86492 0.488992
146 4 0.619026 0.842945 0.498659
145 2 0.622726 0.856261 0.502461
184 2 0.623713 0.871865 0.504661
185 1 0.634421 0.863474 0.485016
186 4 0.643978 0.853654 0.501006
187 1 0.654283 0.844703 0.511091
188 1 0.666127 0.837518 0.516659
710 1 0.696956 0.864353 0.485012
711 4 0.694944 0.85074 0.523349
712 3 0.694171 0.836921 0.516689
846 4 0.818156 0.845462 0.502232
845 2 0.820028 0.859253 0.501453
471 2 0.83129 0.869785 0.497331
570 2 0.816608 0.874507 0.500297
472 1 0.844993 0.8726 0.502045
473 4 0.858965 0.874494 0.499377
526 2 0.992021 0.853976 0.517483
389 2 0.984732 0.867786 0.501435
392 1 0.00130513 0.905652 0.501541
413 1 0.267918 0.876038 0.520402
412 1 0.274348 0.888239 0.498566
411 2 0.27977 0.901056 0.496818
176 2 0.27488 0.915744 0.501623
331 2 0.290182 0.912556 0.513846
332 1 0.303508 0.916134 0.505938
511 1 0.431261 0.886776 0.516581
510 1 0.432803 0.90063 0.499586
509 1 0.434414 0.914221 0.511765
730 2 0.504274 0.906955 0.490705
708 1 0.700582 0.891828 0.50865
707 4 0.701869 0.905563 0.505489
709 4 0.698888 0.877904 0.511198
129 2 0.718545 0.912095 0.490502
130 1 0.73168 0.915774 0.498974
573 1 0.795843 0.910036 0.51244
572 1 0.803135 0.898395 0.485389
571 1 0.809343 0.88607 0.498091
474 4 0.872002 0.878767 0.502718
475 1 0.885167 0.882425 0.491513
476 4 0.898501 0.886461 0.481297
477 1 0.911616 0.889775 0.504773
478 3 0.924652 0.894707 0.511057
696 3 0.924705 0.910186 0.513093
391 4 0.995007 0.89358 0.492039
390 1 0.989986 0.880874 0.483041
393 1 0.00888295 0.917055 0.503662
395 1 0.022659 0.940929 0.493639
396 1 0.0283984 0.953569 0.50799
394 1 0.0160791 0.928919 0.507636
180 1 0.237472 0.955498 0.514978
179 1 0.246175 0.945251 0.498626
178 1 0.256564 0.936169 0.503193
177 1 0.266558 0.926672 0.484349
333 1 0.31641 0.920283 0.494808
334 1 0.329733 0.92407 0.512492
335 1 0.343204 0.927904 0.51321
336 1 0.356838 0.931117 0.491806
337 3 0.370682 0.932795 0.521458
549 3 0.376661 0.947069 0.497951
548 1 0.388623 0.954095 0.501066
508 1 0.43504 0.927611 0.532743
507 1 0.436093 0.941527 0.516619
506 2 0.435276 0.955458 0.476934
733 1 0.496437 0.947623 0.506664
732 1 0.498813 0.934105 0.500159
731 1 0.500726 0.920383 0.47299
840 2 0.580412 0.956674 0.502907
841 4 0.592282 0.950571 0.530519
842 1 0.603784 0.944312 0.507541
843 4 0.61754 0.941283 0.49693
460 4 0.609861 0.954959 0.501381
461 4 0.624509 0.955513 0.515086
459 2 0.595962 0.957603 0.504616
844 3 0.630902 0.937692 0.505357
706 2 0.704657 0.919022 0.494418
131 1 0.74527 0.917906 0.515328
574 3 0.7879 0.921035 0.51313
132 1 0.758958 0.919559 0.498803
133 3 0.772443 0.92204 0.502435
249 3 0.781126 0.934869 0.495833
248 4 0.776065 0.947874 0.493451
695 1 0.92992 0.923018 0.485839
694 1 0.935662 0.935334 0.501678
693 1 0.940978 0.948305 0.490446
839 3 0.0302907 0.997533 0.486221
397 1 0.0320576 0.966744 0.513148
398 3 0.0352004 0.982244 0.489318
592 3 0.045562 0.99445 0.509558
591 1 0.0608532 0.991519 0.494361
590 1 0.0745508 0.98885 0.517296
589 2 0.0875191 0.985428 0.49893
661 1 0.110769 0.973631 0.501787
660 2 0.0968613 0.973116 0.528156
662 1 0.124696 0.973486 0.504727
663 4 0.13855 0.975273 0.520873
664 4 0.152434 0.975653 0.502978
665 1 0.166244 0.977334 0.504076
666 1 0.179644 0.980356 0.514887
763 3 0.198876 0.997096 0.498415
667 3 0.193503 0.982561 0.493206
156 3 0.214121 0.999784 0.480421
183 3 0.20888 0.985245 0.496689
181 1 0.228227 0.96566 0.4853
182 1 0.21891 0.975776 0.518527
547 1 0.400918 0.960232 0.525491
546 4 0.413896 0.964741 0.52585
545 2 0.427166 0.968571 0.514496
754 2 0.44258 0.969135 0.503175
755 1 0.455021 0.97481 0.508727
734 4 0.495368 0.961284 0.504505
758 3 0.493433 0.990442 0.513179
756 1 0.467813 0.979867 0.521827
757 1 0.480842 0.985012 0.507044
735 3 0.493083 0.974994 0.498765
427 3 0.506852 0.997856 0.484902