ITEM: TIMESTEP
0
ITEM: NUMBER OF ATOMS
1008
ITEM: BOX BOUNDS pp pp pp
-7.7267349981973979e+01 -7.1556500180229818e+00
-7.7267349981973979e+01 -7.1556500180229818e+00
-1.0000000000000000e+00 1.0000000000000000e+00
ITEM: ATOMS id type xs ys zs
270 1 0.0159635 0.0259896 0.489533
269 1 0.0171193 0.0117148 0.490537
271 4 0.0163383 0.0401921 0.490285
946 2 0.0645862 0.0315792 0.5095
947 1 0.0554342 0.0425704 0.508139
508 4 0.126178 0.0288975 0.494898
509 1 0.128478 0.0146271 0.489218
510 1 0.130188 0.000365957 0.502236
507 4 0.123644 0.0432145 0.507919
258 4 0.297328 0.0182462 0.504715
257 1 0.286399 0.00882519 0.518959
256 1 0.274954 0.000122772 0.479312
923 4 0.310445 0.0380052 0.501011
259 3 0.309722 0.0249066 0.496538
175 3 0.323368 0.0165797 0.503094
924 3 0.323686 0.0324951 0.507339
7 3 0.337367 0.0242902 0.497948
174 4 0.331335 0.00486053 0.521812
392 3 0.337696 0.0401659 0.479257
6 1 0.348749 0.0330335 0.51434
5 4 0.358029 0.0433459 0.501807
522 1 0.533604 0.0217964 0.492615
523 4 0.526932 0.0345129 0.4858
521 4 0.542067 0.0103566 0.500876
97 1 0.668774 0.029231 0.48981
96 4 0.667676 0.043476 0.506559
98 3 0.672899 0.0144567 0.507219
91 3 0.65997 0.00470132 0.497551
693 3 0.689403 0.0124515 0.491937
692 1 0.704589 0.0129068 0.497709
691 4 0.718792 0.0173163 0.499532
690 1 0.73334 0.0209537 0.499206
688 1 0.762182 0.0269929 0.498404
689 1 0.747586 0.0251236 0.486355
687 2 0.776457 0.0277845 0.495476
477 2 0.791251 0.0214183 0.503601
449 2 0.78917 0.0373201 0.492547
478 1 0.798268 0.00873421 0.486583
844 1 0.911223 0.00264558 0.508958
842 1 0.921242 0.0298886 0.500427
843 4 0.916078 0.016422 0.489353
949 1 0.0337698 0.0611655 0.498475
840 3 0.0213013 0.0725811 0.511127
951 4 0.0159236 0.0839829 0.485414
950 4 0.0237919 0.0717851 0.50208
433 4 0.0342518 0.0843518 0.507143
272 4 0.0131849 0.0539678 0.516417
839 4 0.00783193 0.0698317 0.50609
140 3 0.00794488 0.0812877 0.520332
273 3 0.00655929 0.0656893 0.514466
948 1 0.0450769 0.0523125 0.498755
432 4 0.0486367 0.0839543 0.492673
506 1 0.119832 0.0571388 0.489875
505 2 0.114941 0.0707069 0.508679
428 2 0.106027 0.0840888 0.490079
429 4 0.0919416 0.0857529 0.510565
302 2 0.122006 0.0849999 0.489726
922 1 0.298917 0.0464578 0.489131
920 1 0.284495 0.0706891 0.504807
921 1 0.290218 0.0577391 0.49204
919 4 0.282179 0.0849737 0.516719
391 4 0.335403 0.0544638 0.51364
390 1 0.331681 0.0685823 0.489586
389 1 0.325266 0.0814852 0.515175
4 1 0.369228 0.0519499 0.498029
3 4 0.380736 0.060412 0.517288
2 1 0.393387 0.0669187 0.523364
1 2 0.405735 0.0736516 0.505612
932 2 0.419841 0.0810695 0.4873
933 1 0.434275 0.0805524 0.520423
934 1 0.448299 0.077938 0.522228
935 1 0.462435 0.0756649 0.49436
936 4 0.476794 0.0749664 0.488765
938 3 0.505086 0.0724824 0.49558
937 1 0.491078 0.0747712 0.484256
525 3 0.516331 0.0610299 0.513192
322 3 0.520435 0.0766392 0.494216
524 1 0.521791 0.0480428 0.500932
321 1 0.531351 0.0861821 0.5107
95 4 0.670206 0.0575533 0.506929
94 1 0.67028 0.0717403 0.479884
93 1 0.668978 0.0861031 0.49368
450 1 0.798842 0.048125 0.496371
451 4 0.808298 0.0585811 0.499876
452 1 0.817211 0.0702164 0.497554
453 1 0.824322 0.0827038 0.49062
333 1 0.888449 0.084529 0.507422
332 1 0.900689 0.0773226 0.504024
331 1 0.912229 0.0683437 0.497865
841 2 0.926167 0.0436539 0.489479
834 2 0.938199 0.0542928 0.501453
330 2 0.923036 0.0594501 0.495841
835 1 0.952449 0.0557212 0.506276
836 1 0.966468 0.0588056 0.518196
838 1 0.99428 0.0661035 0.499662
837 1 0.980164 0.0633023 0.499828
434 3 0.0217998 0.0885873 0.506844
462 3 0.0228945 0.10467 0.503071
461 1 0.0340958 0.113514 0.506227
952 3 0.00857758 0.0971141 0.515213
139 4 0.00293079 0.0940308 0.484736
431 1 0.0631881 0.0870914 0.487991
430 1 0.0775125 0.0871621 0.472014
460 1 0.0443721 0.123204 0.487576
303 4 0.1328 0.094556 0.494222
304 1 0.142232 0.105166 0.510958
305 1 0.151226 0.115828 0.504346
306 4 0.161632 0.125344 0.518393
570 1 0.245695 0.120155 0.508598
569 1 0.256828 0.111351 0.508615
571 1 0.234712 0.129337 0.518437
568 2 0.26807 0.102718 0.492232
344 2 0.278707 0.11443 0.491828
918 2 0.283566 0.0992438 0.497532
386 2 0.294407 0.111068 0.499733
309 2 0.28908 0.126234 0.505791
345 4 0.284109 0.127535 0.506966
387 1 0.306617 0.103158 0.485485
388 1 0.316957 0.0930714 0.502607
320 1 0.542953 0.094115 0.506762
319 1 0.553404 0.104023 0.511919
318 1 0.563861 0.113704 0.47304
317 4 0.574025 0.124342 0.507231
209 1 0.64852 0.130082 0.506855
92 2 0.6685 0.100517 0.505865
218 2 0.678264 0.113291 0.478365
219 4 0.692662 0.112872 0.501127
210 3 0.662689 0.129406 0.479821
220 1 0.70667 0.114314 0.526328
221 4 0.720685 0.115592 0.503529
222 1 0.734885 0.117099 0.506118
224 3 0.763264 0.119213 0.504302
223 1 0.749115 0.118233 0.525707
244 1 0.814349 0.121057 0.495821
245 3 0.821033 0.108095 0.492477
454 4 0.829347 0.0967316 0.50468
854 3 0.831742 0.0956728 0.478445
335 1 0.861754 0.0946623 0.500358
336 3 0.847571 0.0985049 0.484543
455 3 0.836826 0.110403 0.49262
853 4 0.840948 0.107519 0.512344
852 4 0.847881 0.120155 0.502631
334 1 0.87522 0.0902439 0.519058
662 1 0.912311 0.121366 0.506857
665 3 0.944917 0.0937138 0.512173
663 4 0.922435 0.111308 0.489238
664 1 0.933671 0.102705 0.503119
138 1 0.995343 0.106236 0.500624
137 4 0.988761 0.118791 0.490305
459 1 0.05347 0.133949 0.504205
458 1 0.0620197 0.145365 0.500363
457 4 0.0694049 0.15736 0.509986
456 2 0.0766648 0.169732 0.49809
757 2 0.0925605 0.170759 0.505705
759 1 0.116303 0.154904 0.503867
758 1 0.104377 0.162421 0.496135
760 1 0.128953 0.148147 0.497536
762 4 0.156924 0.141366 0.501006
761 4 0.142581 0.143324 0.510064
763 3 0.17115 0.143836 0.487957
307 1 0.174212 0.131445 0.491029
713 1 0.179822 0.170258 0.497353
308 3 0.186295 0.1397 0.493173
573 1 0.211044 0.145127 0.496372
714 3 0.182439 0.155388 0.503592
574 3 0.197701 0.150598 0.514867
28 3 0.19424 0.166256 0.509561
572 4 0.223122 0.137486 0.501542
346 1 0.287485 0.141133 0.508748
347 1 0.293745 0.153246 0.513161
310 4 0.29705 0.137922 0.496517
348 4 0.303375 0.163747 0.475888
311 4 0.307001 0.148396 0.487731
312 4 0.31855 0.157441 0.505494
313 1 0.33175 0.16313 0.507572
314 1 0.342458 0.172334 0.503459
349 4 0.313648 0.173621 0.498672
266 3 0.465093 0.136256 0.499277
263 1 0.440063 0.170851 0.499498
265 1 0.456576 0.147919 0.49507
264 4 0.44798 0.159087 0.498752
182 3 0.481034 0.135204 0.508716
181 1 0.494867 0.138695 0.493606
180 4 0.508823 0.141712 0.487251
179 1 0.522519 0.145303 0.505303
178 1 0.536339 0.148992 0.491582
177 1 0.55035 0.151008 0.483623
176 2 0.564762 0.151873 0.503095
960 2 0.569727 0.136626 0.502961
961 4 0.574081 0.150126 0.495248
316 2 0.585169 0.133212 0.513398
204 2 0.580453 0.148543 0.506533
205 1 0.593198 0.142114 0.518448
206 4 0.606522 0.137361 0.495123
962 4 0.577077 0.164314 0.494326
208 4 0.634484 0.132409 0.505942
207 1 0.620242 0.133508 0.48593
637 3 0.674053 0.140706 0.467048
636 1 0.685128 0.149057 0.495616
635 1 0.697106 0.156852 0.481491
634 1 0.709378 0.164021 0.478896
633 1 0.722477 0.169924 0.48788
239 2 0.758974 0.163956 0.51054
240 1 0.772017 0.158053 0.51139
241 4 0.784389 0.150904 0.502308
243 1 0.805662 0.132226 0.488276
242 4 0.795879 0.142532 0.490859
851 1 0.854243 0.133282 0.517874
850 1 0.861678 0.145502 0.499227
849 4 0.869376 0.158079 0.496988
15 2 0.870556 0.155004 0.517506
661 1 0.903664 0.132913 0.504228
848 2 0.87925 0.168517 0.486326
16 4 0.885082 0.157286 0.512586
659 2 0.88634 0.154311 0.509241
660 4 0.896106 0.145282 0.50426
17 4 0.897314 0.163105 0.462654
827 2 0.895317 0.167281 0.517143
828 4 0.88267 0.173366 0.509931
18 1 0.909379 0.171723 0.4961
136 1 0.98419 0.132331 0.490918
135 1 0.979948 0.146001 0.493244
134 2 0.974274 0.159086 0.484095
65 1 0.0738843 0.194395 0.50096
66 1 0.0651045 0.205856 0.490264
67 4 0.0560846 0.217151 0.50058
64 2 0.0836987 0.184133 0.48958
710 4 0.17497 0.212378 0.491576
27 4 0.205946 0.175113 0.50004
711 1 0.175545 0.198459 0.508406
712 1 0.176747 0.184209 0.495794
26 1 0.216955 0.184241 0.519152
25 1 0.227165 0.194543 0.514988
24 4 0.236302 0.205503 0.518901
23 4 0.244193 0.217136 0.514259
683 1 0.301544 0.206947 0.489048
682 1 0.290818 0.216425 0.529992
686 3 0.334993 0.177559 0.489721
684 1 0.312224 0.197336 0.499813
350 3 0.321567 0.185955 0.486233
685 4 0.322975 0.186662 0.517644
595 3 0.335881 0.193381 0.485222
594 4 0.347813 0.200749 0.508407
315 3 0.349415 0.184675 0.501781
593 1 0.358917 0.209396 0.501153
592 1 0.371533 0.216467 0.492988
260 2 0.424922 0.210654 0.494134
261 1 0.428949 0.196773 0.487934
262 1 0.433663 0.183277 0.486278
963 1 0.578458 0.178486 0.493849
964 1 0.58106 0.192607 0.495884
987 3 0.588029 0.203838 0.514164
965 4 0.585496 0.206144 0.502683
986 4 0.60091 0.209936 0.504376
985 1 0.614329 0.215112 0.504318
632 1 0.736092 0.174487 0.509117
631 2 0.750003 0.177331 0.500157
71 2 0.765803 0.178557 0.500182
400 2 0.756897 0.191837 0.48133
401 4 0.762857 0.205106 0.490884
415 1 0.765045 0.203965 0.47132
72 4 0.771615 0.191604 0.511454
414 2 0.77308 0.192506 0.484322
73 4 0.778729 0.20412 0.500129
402 4 0.770031 0.217244 0.499403
416 1 0.760691 0.217149 0.497839
74 4 0.786953 0.216172 0.498028
831 1 0.856028 0.207095 0.475118
830 4 0.863082 0.194639 0.511408
829 1 0.871729 0.183428 0.5033
19 1 0.920791 0.180263 0.493011
20 1 0.932457 0.188387 0.517131
21 3 0.943591 0.197246 0.488707
638 2 0.975101 0.175102 0.511776
641 1 0.990485 0.215054 0.510866
639 1 0.981297 0.18798 0.51826
640 4 0.985994 0.20134 0.514519
643 1 0.00461491 0.240137 0.482857
70 3 0.0280563 0.248873 0.486682
644 3 0.0121951 0.252344 0.496637
69 4 0.0375933 0.238345 0.522806
68 1 0.0465026 0.227295 0.477814
709 1 0.17491 0.226599 0.492193
708 2 0.175449 0.240828 0.499416
925 2 0.257678 0.244727 0.514617
926 1 0.253098 0.25811 0.476996
22 2 0.25156 0.22969 0.510769
681 1 0.27923 0.224534 0.487098
680 2 0.267491 0.232268 0.49133
532 3 0.296387 0.258006 0.481157
531 1 0.310809 0.258613 0.502301
530 1 0.325284 0.257982 0.495094
529 1 0.339479 0.259288 0.492867
591 1 0.385396 0.220739 0.50138
589 2 0.413705 0.222091 0.51582
590 1 0.399516 0.222893 0.518202
498 2 0.429232 0.226169 0.497119
499 1 0.440908 0.234419 0.493698
500 1 0.453764 0.240829 0.498347
501 1 0.467254 0.245321 0.495465
502 4 0.481311 0.24774 0.483297
503 4 0.495285 0.247634 0.505795
504 3 0.509479 0.245709 0.519854
802 4 0.507153 0.257909 0.488296
803 4 0.511124 0.244759 0.489737
804 1 0.517377 0.232376 0.500988
413 3 0.521542 0.256327 0.521115
805 3 0.527237 0.223732 0.495855
329 3 0.524674 0.240518 0.486268
328 4 0.523172 0.255489 0.512543
966 3 0.591202 0.219487 0.497072
984 1 0.627161 0.221587 0.518038
983 1 0.63967 0.228231 0.486939
982 1 0.6524 0.234149 0.503995
981 2 0.665022 0.240351 0.49942
904 2 0.679977 0.234979 0.504661
905 1 0.693788 0.238239 0.494768
906 1 0.707636 0.241765 0.474398
907 1 0.72166 0.245553 0.514485
908 1 0.735237 0.249539 0.487202
417 4 0.760749 0.231475 0.515842
418 4 0.7624 0.24584 0.537239
403 4 0.776457 0.22899 0.499837
405 1 0.775499 0.256021 0.495373
909 4 0.748805 0.25376 0.504039
404 4 0.777882 0.242409 0.528896
910 3 0.762487 0.259489 0.484696
419 4 0.763072 0.260609 0.492773
75 1 0.79917 0.224719 0.514031
76 1 0.811797 0.231387 0.492273
77 3 0.825567 0.235875 0.511686
832 1 0.849395 0.21979 0.484464
833 3 0.840828 0.231306 0.488277
238 3 0.836994 0.246919 0.51829
237 1 0.84463 0.258873 0.521659
642 1 0.996826 0.227728 0.485726
581 3 0.0232441 0.264204 0.504527
580 1 0.0299185 0.276671 0.504241
579 4 0.0369784 0.289041 0.483637
578 1 0.0419152 0.302524 0.479996
927 4 0.248769 0.271602 0.516349
928 1 0.24442 0.285265 0.507245
929 4 0.238237 0.297997 0.516973
528 1 0.353532 0.261654 0.511758
527 1 0.36759 0.264914 0.502184
526 2 0.380757 0.270222 0.493406
1002 2 0.383903 0.285912 0.508428
1003 1 0.386031 0.299755 0.509143
799 2 0.477629 0.289112 0.492141
801 4 0.499466 0.269394 0.511331
412 4 0.516771 0.270129 0.483529
800 1 0.487779 0.278826 0.506229
410 4 0.501827 0.293068 0.499454
411 4 0.509568 0.281596 0.464618
327 1 0.526151 0.270628 0.515073
326 4 0.524982 0.284576 0.4991
325 1 0.525954 0.298966 0.488383
420 3 0.760208 0.275175 0.50294
154 3 0.772239 0.285707 0.502159
406 3 0.77502 0.26978 0.494469
153 1 0.760723 0.294232 0.504251
56 3 0.787245 0.28022 0.493953
55 1 0.799356 0.287196 0.483466
54 4 0.811895 0.292554 0.5128
84 3 0.784448 0.295913 0.519164
83 4 0.798317 0.301545 0.518961
287 3 0.798767 0.30278 0.505243
53 1 0.823575 0.299893 0.513991
236 4 0.852653 0.270398 0.503556
235 1 0.859308 0.283293 0.499155
234 1 0.863745 0.296589 0.511063
577 1 0.0448293 0.316425 0.510218
576 1 0.0468894 0.330422 0.49502
575 2 0.0493042 0.344783 0.496444
930 1 0.232815 0.311226 0.49872
196 3 0.22529 0.340428 0.501178
931 3 0.228322 0.324694 0.507602
1004 1 0.388972 0.313452 0.488367
1006 1 0.389166 0.342429 0.498455
1005 1 0.389771 0.327838 0.483961
197 2 0.478063 0.346185 0.490471
409 4 0.494742 0.305565 0.468985
408 1 0.489106 0.31816 0.536549
407 2 0.484687 0.331757 0.515669
547 2 0.493949 0.344764 0.517639
324 1 0.528108 0.313055 0.499401
323 2 0.530616 0.327377 0.501398
149 1 0.723404 0.337344 0.49455
150 1 0.733138 0.32701 0.524406
148 2 0.713541 0.347325 0.507886
152 4 0.751068 0.304903 0.516746
151 1 0.742314 0.316017 0.50331
82 4 0.811559 0.308415 0.5045
286 4 0.798201 0.31738 0.499808
285 1 0.800123 0.331652 0.512284
284 1 0.8042 0.345236 0.476217
81 4 0.823066 0.31673 0.501938
52 4 0.835426 0.306719 0.5047
51 4 0.847613 0.312873 0.529902
80 4 0.835534 0.323507 0.498786
79 1 0.847108 0.332319 0.50635
50 2 0.856667 0.322136 0.502115
78 2 0.860985 0.337307 0.49767
233 4 0.865395 0.311226 0.512968
232 2 0.871876 0.325175 0.516699
785 2 0.87666 0.340464 0.497223
869 2 0.93472 0.318082 0.503557
870 1 0.939968 0.331359 0.499941
871 1 0.943658 0.345139 0.495657
765 1 0.0252459 0.363421 0.50064
766 4 0.0138821 0.371877 0.481175
767 1 0.00196948 0.379559 0.497208
764 2 0.0368287 0.354805 0.486309
141 2 0.0517381 0.360785 0.51573
142 1 0.0645733 0.367037 0.493867
143 1 0.0763567 0.375459 0.488374
144 1 0.0865631 0.385546 0.510009
625 1 0.175689 0.382477 0.517302
624 2 0.185087 0.37153 0.50026
195 1 0.230862 0.353373 0.502484
194 1 0.23823 0.365867 0.4859
193 4 0.24597 0.378023 0.491002
192 1 0.254376 0.389354 0.485656
493 4 0.317264 0.387981 0.505948
494 1 0.330791 0.382493 0.507656
495 1 0.344756 0.37928 0.511126
497 3 0.37312 0.376969 0.482719
496 4 0.359072 0.378839 0.501251
903 3 0.385514 0.386863 0.51044
1008 3 0.387864 0.370877 0.481776
1007 1 0.388977 0.356689 0.516949
202 4 0.413238 0.375035 0.501092
203 3 0.40033 0.380704 0.493352
201 4 0.4257 0.368186 0.504166
198 1 0.464102 0.349466 0.492007
199 1 0.450848 0.355072 0.517527
200 1 0.43859 0.362006 0.504769
548 1 0.50287 0.355651 0.510492
549 4 0.511511 0.367212 0.515857
550 1 0.52153 0.377835 0.497601
551 1 0.532042 0.387651 0.490758
470 2 0.711802 0.363392 0.493794
471 1 0.714213 0.377534 0.516435
283 1 0.809376 0.358617 0.497144
282 1 0.815403 0.371517 0.501689
281 2 0.821445 0.384751 0.482095
786 1 0.883507 0.353002 0.507161
787 1 0.890984 0.364937 0.513964
788 4 0.89998 0.376429 0.491051
789 1 0.909933 0.386766 0.504193
874 1 0.949748 0.387249 0.516909
873 1 0.948339 0.373055 0.483284
872 1 0.94584 0.359196 0.468
768 1 0.989977 0.387262 0.495715
145 1 0.0957259 0.396068 0.470845
146 1 0.103737 0.407682 0.499434
147 3 0.109876 0.420465 0.488407
630 3 0.122513 0.430366 0.479763
626 4 0.165718 0.392679 0.51319
627 4 0.155067 0.401931 0.509905
628 1 0.143487 0.410368 0.486313
629 4 0.132959 0.420431 0.503962
994 3 0.193337 0.404064 0.52889
993 1 0.194615 0.418173 0.512339
992 1 0.197842 0.431997 0.514834
191 1 0.265006 0.399103 0.500834
190 2 0.276784 0.406834 0.491146
106 2 0.288042 0.418045 0.507676
107 1 0.291476 0.43214 0.510947
491 2 0.29234 0.402615 0.511521
492 1 0.304411 0.394811 0.496106
735 3 0.370818 0.392775 0.520778
733 1 0.356501 0.417192 0.511107
734 4 0.362384 0.403949 0.51259
732 1 0.349755 0.429545 0.509315
902 1 0.391489 0.399503 0.472716
901 1 0.396475 0.413128 0.507706
900 1 0.401724 0.426663 0.506873
552 1 0.541717 0.398106 0.483247
553 3 0.552636 0.407205 0.509365
472 4 0.717473 0.391784 0.505456
473 1 0.721087 0.405389 0.502551
474 4 0.726879 0.41821 0.498585
475 1 0.734564 0.430328 0.510796
996 1 0.819108 0.41064 0.498257
997 4 0.809228 0.420636 0.513301
998 4 0.797567 0.429253 0.492878
995 2 0.82793 0.399314 0.493516
790 4 0.921299 0.39531 0.497209
791 3 0.934019 0.401179 0.516311
126 3 0.941871 0.415069 0.49381
875 3 0.949996 0.40126 0.5033
125 4 0.937693 0.428759 0.510843
119 3 0.957815 0.41536 0.508104
770 3 0.965814 0.401565 0.504856
769 4 0.978286 0.394968 0.506351
118 1 0.969548 0.423766 0.503512
117 4 0.980491 0.433006 0.505416
114 1 0.00943322 0.464311 0.501423
113 2 0.0193772 0.474522 0.508282
115 1 0.000669094 0.453294 0.498593
165 4 0.0736105 0.46163 0.496904
164 1 0.0604009 0.467369 0.518262
163 1 0.047635 0.473384 0.482304
166 1 0.0862858 0.454652 0.488079
168 3 0.107659 0.436331 0.507226
167 1 0.0976541 0.446444 0.50185
991 1 0.200325 0.446144 0.487729
990 1 0.202774 0.460158 0.488809
989 1 0.207725 0.473503 0.500335
108 1 0.294848 0.44615 0.49573
109 4 0.297414 0.460448 0.498948
110 1 0.297299 0.474732 0.510677
729 2 0.334957 0.469635 0.510489
730 1 0.338566 0.455846 0.500554
731 4 0.343053 0.442299 0.506153
899 1 0.408336 0.439591 0.507866
898 1 0.414136 0.452647 0.506089
897 2 0.420895 0.465499 0.508628
225 2 0.598943 0.468893 0.505297
890 2 0.583573 0.473257 0.501793
476 3 0.743633 0.441248 0.487061
812 3 0.745674 0.456947 0.495461
811 1 0.745863 0.471008 0.524243
1001 3 0.758615 0.447401 0.498793
1000 1 0.772204 0.441822 0.493112
999 4 0.785073 0.435879 0.511605
122 1 0.931704 0.471443 0.506935
123 4 0.933261 0.457074 0.491747
124 1 0.934904 0.443044 0.493314
116 1 0.9908 0.442777 0.501557
162 2 0.034551 0.479121 0.498118
743 2 0.0229427 0.490262 0.51372
744 4 0.0308001 0.502003 0.508678
745 1 0.0406337 0.512193 0.497531
746 1 0.0527256 0.520187 0.497908
161 3 0.105615 0.516144 0.492346
707 3 0.121413 0.519492 0.506451
160 1 0.11887 0.520838 0.488742
705 4 0.147161 0.504981 0.506653
704 4 0.160174 0.498331 0.479628
706 4 0.134927 0.513152 0.508305
157 4 0.160087 0.514427 0.527216
158 1 0.146251 0.521325 0.491448
156 4 0.173566 0.50749 0.481232
703 1 0.173768 0.493419 0.522363
702 4 0.187423 0.493586 0.469852
155 2 0.187986 0.504244 0.50718
701 2 0.201449 0.495657 0.491993
862 2 0.202195 0.511815 0.512095
988 2 0.214471 0.486701 0.50277
792 2 0.215678 0.502805 0.509972
793 1 0.230403 0.505515 0.492683
794 4 0.244319 0.505617 0.484101
795 1 0.258376 0.504747 0.497353
111 4 0.293883 0.489053 0.515919
796 1 0.272326 0.505018 0.495918
797 4 0.286933 0.507014 0.507917
112 3 0.289383 0.501795 0.500176
798 3 0.300367 0.513312 0.516754
980 3 0.305232 0.498114 0.501338
979 1 0.311361 0.511354 0.504991
246 2 0.43005 0.478664 0.502673
247 1 0.443277 0.484619 0.500066
248 1 0.455394 0.491782 0.485198
249 4 0.467082 0.500375 0.506777
250 4 0.478312 0.509117 0.502162
251 1 0.489523 0.517858 0.513811
895 1 0.528772 0.518803 0.493822
893 1 0.552066 0.50244 0.514789
894 1 0.540674 0.511001 0.497265
892 1 0.562888 0.493029 0.491867
891 4 0.573073 0.483115 0.507522
226 1 0.605627 0.48116 0.495147
227 1 0.610969 0.49445 0.498792
228 1 0.616391 0.507553 0.492314
229 4 0.621055 0.521125 0.501077
810 1 0.747467 0.48539 0.496027
809 1 0.750428 0.499439 0.504952
808 1 0.755795 0.512716 0.512643
381 1 0.884055 0.512361 0.517272
380 1 0.896983 0.506385 0.497944
379 2 0.912153 0.505765 0.509954
120 2 0.92706 0.500035 0.512641
121 4 0.929058 0.485766 0.518557
603 2 0.925382 0.516025 0.489084
747 1 0.0659016 0.525395 0.519773
748 1 0.0800105 0.527341 0.511819
749 3 0.0946836 0.527708 0.475952
567 3 0.110437 0.531244 0.490636
566 4 0.107268 0.545203 0.514275
565 1 0.104493 0.558913 0.503358
159 1 0.132697 0.523136 0.495078
863 1 0.196568 0.525552 0.503797
864 1 0.19278 0.539018 0.503016
865 1 0.190842 0.553363 0.505539
978 1 0.315114 0.525189 0.50541
977 4 0.315734 0.53933 0.493306
976 1 0.314613 0.553547 0.508595
896 3 0.516935 0.526874 0.499244
252 3 0.501064 0.526176 0.470681
216 1 0.507131 0.554674 0.483816
217 3 0.508562 0.540391 0.500052
231 3 0.628649 0.548832 0.530525
230 1 0.625199 0.534774 0.508436
658 3 0.624988 0.564276 0.511168
807 1 0.762288 0.5253 0.484681
806 2 0.769624 0.539562 0.47811
127 2 0.78141 0.551189 0.489683
29 2 0.76637 0.555503 0.511219
30 1 0.781089 0.559746 0.506876
383 1 0.867712 0.535384 0.517735
384 1 0.863954 0.549257 0.501476
385 3 0.861939 0.563449 0.494433
382 1 0.874182 0.522535 0.490088
606 1 0.915487 0.556718 0.502754
605 1 0.923956 0.544971 0.480577
604 1 0.927545 0.531045 0.504897
564 1 0.101005 0.572773 0.509605
563 1 0.0991768 0.587017 0.492212
562 1 0.0994193 0.601291 0.483974
866 1 0.190341 0.56787 0.489731
867 1 0.191697 0.582066 0.480399
868 3 0.196151 0.597397 0.483568
826 3 0.212622 0.600804 0.486792
824 1 0.241607 0.590552 0.498592
825 1 0.228408 0.595795 0.504301
823 1 0.255079 0.585263 0.489537
820 2 0.29454 0.56835 0.474109
822 1 0.268281 0.580041 0.495689
821 1 0.281691 0.57487 0.498131
435 2 0.289029 0.583154 0.484476
436 4 0.302991 0.581855 0.498143
974 2 0.304814 0.580912 0.52128
975 4 0.311142 0.567996 0.499458
437 4 0.317251 0.583384 0.492882
438 1 0.330977 0.589316 0.484634
439 4 0.344555 0.594033 0.499528
440 4 0.358045 0.599136 0.500907
441 3 0.370864 0.604413 0.511345
215 4 0.503859 0.568572 0.491719
214 1 0.499928 0.582337 0.508708
213 4 0.49534 0.595981 0.500936
657 1 0.62429 0.578631 0.499321
656 4 0.62489 0.593045 0.496968
655 1 0.627541 0.607146 0.503657
128 4 0.776592 0.566011 0.500792
8 2 0.777745 0.566859 0.494682
129 4 0.768504 0.579681 0.499324
130 1 0.75889 0.592142 0.48769
131 4 0.751263 0.604267 0.518774
9 4 0.784543 0.579648 0.510355
31 4 0.792923 0.566375 0.522559
10 4 0.790874 0.592317 0.51106
32 4 0.805223 0.572634 0.494151
33 1 0.819586 0.575047 0.480805
11 1 0.795546 0.606178 0.502079
34 1 0.834075 0.574731 0.492982
35 3 0.848221 0.571929 0.496736
588 3 0.862022 0.579583 0.51669
607 1 0.903777 0.565275 0.494425
587 1 0.870432 0.591253 0.470775
609 3 0.875768 0.571624 0.474634
608 4 0.890184 0.569882 0.516814
586 1 0.878701 0.602859 0.517998
397 1 0.0388825 0.651215 0.498532
396 1 0.0513877 0.644348 0.499832
395 1 0.0644523 0.638466 0.487577
394 4 0.0771215 0.631474 0.488358
736 2 0.0852851 0.637529 0.504433
393 2 0.0871576 0.621836 0.461568
561 2 0.101715 0.615372 0.542549
57 2 0.100077 0.631252 0.499579
58 4 0.11436 0.62999 0.504621
59 1 0.12873 0.628309 0.491629
737 4 0.0895287 0.651074 0.494515
60 1 0.142609 0.624871 0.466711
61 4 0.155836 0.619622 0.47729
62 1 0.169135 0.614118 0.47985
63 3 0.184898 0.609581 0.493411
756 3 0.201071 0.612988 0.48852
755 1 0.20581 0.627965 0.515213
754 1 0.207654 0.642011 0.495494
427 3 0.384228 0.612961 0.49522
623 3 0.370197 0.620411 0.492987
622 1 0.362807 0.632539 0.49409
621 4 0.355561 0.644865 0.488642
426 1 0.398567 0.613713 0.522439
425 1 0.413133 0.615046 0.501562
424 1 0.426917 0.617762 0.483106
423 4 0.440785 0.620904 0.515643
422 1 0.454378 0.624737 0.486768
421 2 0.468495 0.632172 0.50091
876 2 0.468929 0.648751 0.501842
212 1 0.490202 0.608734 0.488123
358 2 0.482937 0.63952 0.518963
211 2 0.482392 0.622844 0.5045
359 1 0.497055 0.64738 0.485485
654 4 0.630267 0.621124 0.493057
653 1 0.63345 0.634997 0.483289
652 2 0.63774 0.648639 0.496769
616 3 0.734507 0.645111 0.512544
615 1 0.720821 0.649545 0.496888
133 3 0.740543 0.630411 0.484105
132 1 0.745456 0.617199 0.505237
12 1 0.800815 0.619281 0.475518
13 4 0.80569 0.632486 0.495281
14 3 0.811319 0.645409 0.487232
585 1 0.888173 0.61347 0.510382
584 1 0.896069 0.625625 0.51003
583 1 0.904242 0.637273 0.490029
582 2 0.912399 0.649428 0.476575
398 1 0.0275933 0.659931 0.49059
819 3 0.0179418 0.687242 0.490036
399 3 0.0179194 0.671303 0.491343
784 3 0.00393172 0.679356 0.488952
861 3 0.00418663 0.695516 0.499793
738 1 0.0944982 0.664852 0.513539
739 1 0.0971373 0.679049 0.507163
740 1 0.098348 0.69314 0.500926
752 1 0.207407 0.671143 0.496139
753 1 0.207447 0.656667 0.508387
751 1 0.20567 0.685241 0.497461
618 4 0.333569 0.681926 0.48908
617 2 0.325169 0.693319 0.499503
619 1 0.340763 0.669404 0.504721
620 1 0.34881 0.657554 0.515143
877 1 0.461149 0.663338 0.508197
879 1 0.444333 0.686671 0.528325
878 1 0.452271 0.674808 0.522214
360 4 0.508815 0.655706 0.510535
361 4 0.519652 0.665124 0.498442
362 1 0.528973 0.676064 0.505875
363 1 0.537052 0.687611 0.510059
697 1 0.601817 0.68856 0.47479
698 4 0.588513 0.694212 0.485079
696 1 0.614417 0.681851 0.522846
695 1 0.626404 0.674228 0.500935
610 2 0.651269 0.657387 0.490619
694 2 0.637162 0.664706 0.502626
611 1 0.665249 0.659911 0.499061
613 1 0.693647 0.658563 0.508817
612 1 0.679566 0.660116 0.517893
614 1 0.707392 0.655213 0.483386
543 4 0.772519 0.689455 0.511992
544 1 0.782568 0.679415 0.490302
889 3 0.818976 0.659452 0.503133
545 1 0.79307 0.669681 0.501317
546 3 0.80301 0.659146 0.500452
888 1 0.83344 0.659521 0.490058
887 4 0.847667 0.661679 0.495265
886 1 0.861801 0.664352 0.505784
885 1 0.876249 0.665092 0.508304
884 4 0.890149 0.663705 0.501257
883 2 0.904227 0.663106 0.51672
352 1 0.908243 0.690744 0.478533
351 2 0.912239 0.676887 0.515672
780 1 0.949335 0.662301 0.512987
779 1 0.934893 0.661744 0.500697
778 2 0.920438 0.663201 0.502869
781 4 0.963275 0.664998 0.501006
782 4 0.976936 0.669191 0.499276
783 1 0.990137 0.6749 0.498211
818 1 0.0259064 0.699275 0.496853
817 1 0.031816 0.71197 0.485262
816 1 0.0343916 0.726116 0.496066
741 4 0.0983164 0.707273 0.480216
742 3 0.0994647 0.72176 0.483154
679 3 0.110808 0.732849 0.507873
678 1 0.124633 0.729512 0.510966
280 3 0.0953691 0.737414 0.478554
676 1 0.152682 0.724101 0.520033
677 1 0.138884 0.726894 0.50846
675 4 0.166415 0.720803 0.51611
674 1 0.179779 0.716902 0.490573
750 2 0.203389 0.69925 0.482715
673 2 0.192854 0.711542 0.485848
484 2 0.208535 0.714289 0.514308
485 1 0.219499 0.722691 0.496868
486 1 0.230601 0.731617 0.514599
715 2 0.323138 0.709248 0.4927
716 1 0.314519 0.721049 0.514965
717 1 0.308403 0.733886 0.475478
882 3 0.426097 0.725268 0.488087
881 1 0.431617 0.711882 0.488293
880 1 0.437784 0.699248 0.515754
364 3 0.544982 0.699596 0.516668
700 3 0.560869 0.700317 0.477718
560 3 0.552325 0.713933 0.494968
559 1 0.547337 0.727486 0.493202
699 1 0.575001 0.698444 0.503125
540 2 0.741969 0.719443 0.484877
542 1 0.76175 0.69898 0.499967
541 1 0.751562 0.709145 0.482472
353 1 0.906593 0.704964 0.490568
354 1 0.907509 0.719407 0.498603
355 4 0.910095 0.733273 0.508281
376 4 0.926367 0.731045 0.475972
374 1 0.945693 0.709976 0.515003
375 4 0.934594 0.719511 0.504162
372 2 0.970242 0.696628 0.489253
373 1 0.957594 0.702661 0.496394
860 4 0.998127 0.708797 0.496509
859 1 0.994133 0.722807 0.502791
858 1 0.993675 0.737193 0.516503
815 1 0.0333511 0.740238 0.530638
814 4 0.0297439 0.754313 0.515964
813 2 0.0234423 0.766909 0.477334
855 2 0.0101977 0.775825 0.515086
275 4 0.0387313 0.779218 0.501199
856 1 0.00216002 0.764435 0.491359
276 1 0.0525177 0.774612 0.483705
278 1 0.0757765 0.758302 0.479107
277 1 0.0647778 0.767451 0.489516
279 1 0.0863827 0.748687 0.490525
728 3 0.107129 0.748493 0.495844
727 4 0.117683 0.758293 0.493918
726 1 0.127469 0.768803 0.482286
725 4 0.138288 0.778097 0.507916
487 1 0.241061 0.741538 0.476461
488 1 0.251029 0.751755 0.538229
489 4 0.260271 0.762309 0.484475
719 1 0.294357 0.758732 0.503202
720 1 0.287063 0.770931 0.488327
490 3 0.267966 0.774002 0.484236
718 4 0.301385 0.746284 0.480133
189 3 0.428147 0.74129 0.509765
188 1 0.439013 0.750649 0.496914
187 1 0.449466 0.760412 0.500658
186 1 0.460505 0.769536 0.510684
185 1 0.472234 0.777544 0.50075
555 1 0.518699 0.776315 0.520018
558 1 0.540891 0.740202 0.493724
556 4 0.526268 0.764417 0.497481
557 1 0.534356 0.752704 0.487989
343 3 0.800489 0.74874 0.510668
342 1 0.805756 0.76223 0.50872
341 1 0.809868 0.775839 0.509733
356 1 0.908358 0.747692 0.508658
357 3 0.905078 0.761925 0.509098
518 3 0.900536 0.777278 0.514609
973 3 0.916112 0.773707 0.520898
377 4 0.921792 0.744404 0.507547
378 3 0.9206 0.758643 0.48758
972 1 0.92815 0.781573 0.506028
857 4 0.996494 0.751287 0.492676
274 2 0.0249036 0.782758 0.489209
596 2 0.0116846 0.791616 0.514669
597 1 0.00664957 0.804956 0.505932
598 4 0.000725284 0.817957 0.483178
724 1 0.149842 0.786404 0.493576
723 1 0.160038 0.796324 0.501208
722 2 0.169514 0.806821 0.487245
288 2 0.183733 0.81426 0.509063
289 1 0.19744 0.81003 0.497182
290 1 0.210973 0.805438 0.513081
291 1 0.225045 0.802334 0.515096
292 1 0.238678 0.79864 0.497243
293 1 0.252405 0.794605 0.507798
721 3 0.280672 0.783822 0.499709
294 3 0.266026 0.790018 0.486996
953 2 0.287841 0.799676 0.497547
954 1 0.29142 0.813299 0.5044
647 1 0.469339 0.825066 0.5116
646 1 0.481173 0.817274 0.509614
184 4 0.484027 0.78569 0.509969
645 2 0.492663 0.808333 0.524775
554 2 0.511652 0.788402 0.50076
183 2 0.496349 0.792845 0.511956
463 2 0.50801 0.803862 0.496682
464 4 0.517532 0.814198 0.494135
465 1 0.526419 0.825349 0.501417
340 4 0.812921 0.789646 0.490027
339 1 0.814557 0.803614 0.476303
338 1 0.815823 0.817889 0.493925
512 2 0.830244 0.825695 0.504177
514 1 0.854857 0.811909 0.5177
513 4 0.843303 0.82038 0.519996
515 4 0.865619 0.802786 0.483484
517 1 0.888948 0.785758 0.489642
516 1 0.877067 0.794026 0.510683
971 1 0.941195 0.786844 0.504253
970 4 0.955114 0.789563 0.510075
967 2 0.997103 0.785311 0.496571
968 4 0.983345 0.78889 0.510094
969 1 0.969275 0.789985 0.492263
99 2 0.117493 0.868831 0.518333
957 1 0.297044 0.855823 0.497099
956 1 0.295195 0.841757 0.514152
955 4 0.293921 0.827471 0.469433
651 3 0.42183 0.856311 0.470507
371 3 0.40814 0.864495 0.508063
650 4 0.433589 0.848501 0.493978
648 1 0.457206 0.832508 0.491793
649 1 0.44597 0.841426 0.501991
466 1 0.534889 0.836862 0.491806
467 1 0.544487 0.847582 0.496477
468 1 0.55231 0.859451 0.471532
337 2 0.815735 0.832295 0.511042
442 2 0.81434 0.848184 0.516935
443 1 0.814578 0.86241 0.513269
666 2 0.828819 0.841543 0.503223
667 4 0.842642 0.845549 0.512345
668 1 0.855344 0.851692 0.499435
669 4 0.867102 0.859669 0.485486