ITEM: TIMESTEP
0
ITEM: NUMBER OF ATOMS
2800
ITEM: BOX BOUNDS pp pp pp
-1.4746951924029645e+02 1.3145192404711850e+00
-1.4746951924029645e+02 1.3145192404711850e+00
-1.0000000000000000e+00 1.0000000000000000e+00
ITEM: ATOMS id type xs ys zs
963 1 0.0445431 0.0136472 0.522741
964 1 0.0479896 0.00770014 0.554631
965 1 0.0510805 0.00189707 0.565343
2264 1 0.120887 0.00433323 0.455555
2265 1 0.126724 0.00738243 0.495878
2263 1 0.115462 0.000211017 0.498043
2266 1 0.133109 0.00935083 0.48563
2267 1 0.139845 0.0103691 0.492287
2268 3 0.146785 0.0112025 0.550351
1477 3 0.152795 0.0067253 0.507392
812 3 0.153639 0.0142527 0.49633
1476 1 0.15588 0.000510059 0.487966
536 1 0.290298 0.014814 0.430572
537 1 0.295246 0.00979469 0.604816
538 1 0.300174 0.00453612 0.404544
1173 1 0.331384 0.00144102 0.428744
1171 1 0.34434 0.00414982 0.502488
1172 1 0.337804 0.00268141 0.52589
1170 2 0.350753 0.00585732 0.602172
2444 2 0.357353 0.00238911 0.504281
1205 2 0.357027 0.0098905 0.549849
1206 1 0.359114 0.0161646 0.509401
2109 1 0.442708 0.00436253 0.576531
2110 1 0.447133 0.00933711 0.498819
2111 1 0.451912 0.0138349 0.498498
2033 1 0.524349 0.013423 0.406343
2034 1 0.52718 0.00746231 0.458954
2035 1 0.529591 0.00150902 0.547806
1705 1 0.601467 0.00096024 0.5446
1707 1 0.609429 0.0116317 0.521894
1706 1 0.605412 0.00627019 0.445002
1708 3 0.613813 0.0165962 0.585581
6 1 0.667812 0.0161022 0.451225
5 1 0.668477 0.00932846 0.574449
4 1 0.668835 0.00269819 0.48657
1792 3 0.796137 0.0076368 0.537607
1791 1 0.795072 0.0144595 0.530712
2800 3 0.791209 0.00185864 0.56205
49 3 0.798556 0.000613509 0.462324
2294 1 0.902885 0.00232101 0.565062
2293 1 0.908612 0.00597172 0.471082
2292 1 0.914516 0.00935185 0.562706
2291 1 0.920266 0.0126455 0.499829
2290 2 0.926489 0.0158403 0.557523
2318 2 0.933603 0.0139874 0.449844
2319 1 0.93862 0.00933803 0.430874
2320 1 0.942887 0.00429101 0.471802
960 2 0.0324994 0.0302654 0.526467
961 1 0.0370828 0.0251269 0.458744
962 1 0.0403332 0.0193029 0.480443
811 1 0.158276 0.0193233 0.538058
810 1 0.161919 0.0249374 0.535546
809 1 0.166753 0.0293971 0.551878
808 1 0.171597 0.0338827 0.48106
1531 1 0.213025 0.0304093 0.536223
1530 1 0.206989 0.0333961 0.557403
1532 1 0.218679 0.0271281 0.43452
2429 3 0.230823 0.0196215 0.533162
1533 3 0.224434 0.0235388 0.45371
2428 1 0.237356 0.0211558 0.480135
2427 1 0.243911 0.022564 0.523592
2426 1 0.250481 0.0237005 0.423883
2425 1 0.256942 0.0256961 0.430298
2424 1 0.263149 0.0282976 0.607352
2423 2 0.269542 0.0309297 0.438766
533 2 0.276896 0.0299162 0.524213
535 1 0.28596 0.0203132 0.462084
534 1 0.281307 0.0251102 0.377904
1207 1 0.361649 0.0221548 0.505086
1208 1 0.363458 0.0285683 0.553322
1209 1 0.365311 0.0349021 0.500799
2112 1 0.456146 0.0189528 0.570711
2113 1 0.460418 0.0239594 0.55113
2114 3 0.464558 0.0291203 0.464728
1008 3 0.47178 0.0310402 0.520247
1006 1 0.485044 0.0292227 0.601791
1007 1 0.478387 0.0300736 0.456782
1005 1 0.491704 0.0289343 0.539684
1004 1 0.498234 0.0279824 0.471578
1003 1 0.50505 0.0282943 0.485938
1002 2 0.511784 0.0294328 0.526445
2032 1 0.521244 0.0192519 0.555705
2031 2 0.51794 0.0250299 0.554241
1765 2 0.518609 0.0325502 0.57372
1349 1 0.65113 0.0363352 0.383214
1350 1 0.655896 0.0314989 0.41005
1351 3 0.661663 0.02816 0.436633
7 3 0.667223 0.0228229 0.522348
2191 3 0.668938 0.0301655 0.475773
2190 1 0.674441 0.0339505 0.539715
1790 1 0.794365 0.0210776 0.459489
1789 1 0.793533 0.0277221 0.528892
1788 1 0.79395 0.0344984 0.543645
911 2 0.931626 0.0212016 0.474607
912 1 0.932145 0.0278638 0.521813
913 1 0.932244 0.0346228 0.478726
2696 2 0.0346692 0.037604 0.527046
2697 1 0.036581 0.0440699 0.472145
2698 1 0.0382677 0.0506565 0.409527
807 1 0.17611 0.038405 0.595646
806 2 0.181169 0.0427789 0.56562
1317 2 0.18434 0.0492818 0.392917
1527 2 0.188508 0.0430433 0.460209
1528 1 0.194908 0.0400986 0.579495
1529 1 0.200892 0.0367237 0.439178
127 2 0.274026 0.0368984 0.549738
129 1 0.272833 0.0504358 0.492849
128 1 0.273447 0.0437423 0.506676
1210 1 0.366224 0.0415944 0.588268
1211 3 0.366602 0.0483142 0.572434
1435 3 0.466435 0.0364559 0.487541
1434 1 0.464883 0.0430613 0.485668
1433 1 0.464498 0.0497205 0.465416
1766 1 0.520767 0.0390737 0.569345
1767 1 0.522399 0.0453843 0.500645
1768 1 0.522981 0.0519875 0.467842
1346 1 0.638219 0.0518267 0.577442
1347 1 0.642406 0.0464127 0.533954
1348 1 0.646922 0.0412624 0.568218
2189 1 0.679596 0.0380938 0.564244
2188 1 0.684613 0.042497 0.445757
2187 1 0.688918 0.0475461 0.528895
2186 1 0.69289 0.0527393 0.441295
1787 1 0.792991 0.0412086 0.575177
1786 2 0.791786 0.0475794 0.43637
1975 2 0.786492 0.052914 0.484892
915 1 0.931345 0.047908 0.423157
914 1 0.931888 0.041214 0.507593
2699 1 0.0396966 0.0574831 0.593816
2700 1 0.0407747 0.0642271 0.531197
2701 1 0.0403765 0.0709567 0.475362
1318 1 0.183378 0.0560085 0.474699
1319 1 0.183194 0.0629196 0.558278
1320 1 0.183215 0.0696298 0.564589
132 1 0.269747 0.0701794 0.522188
131 1 0.271111 0.0634533 0.554507
130 1 0.272099 0.0571087 0.462619
1432 1 0.465381 0.0562757 0.392808
1431 1 0.466437 0.0629714 0.448883
1430 1 0.468734 0.0695276 0.490607
1769 1 0.523456 0.0586298 0.614787
1770 1 0.523508 0.0652961 0.503546
1771 3 0.522562 0.0722062 0.48543
1025 1 0.617343 0.0694963 0.413762
1024 1 0.623178 0.0658913 0.577881
1345 2 0.635094 0.0579715 0.503707
1023 2 0.629222 0.0627049 0.524893
2339 2 0.636361 0.0654818 0.604517
2340 1 0.641299 0.0701598 0.626673
1101 1 0.694693 0.0711341 0.626216
2185 2 0.696586 0.0585063 0.484742
1149 2 0.703927 0.060033 0.546403
1100 2 0.698659 0.0656216 0.552299
1150 1 0.710272 0.0611207 0.41083
1151 1 0.717083 0.0619806 0.471097
1152 1 0.723704 0.0626061 0.414302
1153 1 0.730277 0.0630783 0.545479
1154 1 0.737247 0.0635537 0.428159
1155 3 0.743916 0.0639734 0.476106
1981 3 0.749618 0.068754 0.570282
1980 1 0.755683 0.0658596 0.542012
1979 1 0.761642 0.0630283 0.510705
1978 1 0.767746 0.0599738 0.524407
1976 1 0.78013 0.0550842 0.476122
1977 1 0.773675 0.057173 0.50545
631 2 0.793773 0.054668 0.490061
632 1 0.798841 0.0589833 0.367313
633 1 0.803971 0.0636061 0.530531
634 1 0.809202 0.0682862 0.4551
635 1 0.814722 0.0725261 0.470198
916 1 0.931109 0.0546983 0.537544
917 3 0.930251 0.0613222 0.446421
1954 2 0.931038 0.0688222 0.4718
1999 1 0.0158897 0.0884842 0.436542
2000 1 0.0221274 0.0867825 0.447272
2001 1 0.0288293 0.0854712 0.366418
2002 3 0.0352706 0.084 0.540382
2702 3 0.0391439 0.0775929 0.450032
98 3 0.0429173 0.0839349 0.54914
97 1 0.0480497 0.0884843 0.538136
1321 1 0.183486 0.0765028 0.536522
1322 1 0.1847 0.0832418 0.508867
1323 3 0.186011 0.0897145 0.490582
377 1 0.260741 0.0880308 0.449979
378 3 0.26617 0.083903 0.507697
133 3 0.26895 0.0769412 0.492496
462 3 0.273557 0.0828629 0.467579
461 1 0.279239 0.0866097 0.479162
460 1 0.285072 0.0899392 0.594473
1429 2 0.470735 0.0759178 0.506826
2766 2 0.469677 0.0834112 0.534333
2767 1 0.467156 0.0897304 0.553106
2283 2 0.476665 0.0804387 0.511065
2284 1 0.483572 0.0806368 0.461653
2285 1 0.490266 0.0811356 0.577528
2286 1 0.497039 0.0810379 0.537054
2287 1 0.503701 0.0794458 0.464094
2288 1 0.51002 0.0782174 0.513543
2289 3 0.516783 0.0770048 0.465302
1302 3 0.523807 0.0796785 0.508452
1301 1 0.527771 0.0853023 0.469728
1300 1 0.531838 0.0905721 0.520609
1029 3 0.599271 0.0891809 0.489436
1028 1 0.602388 0.0831013 0.426482
1026 1 0.611641 0.0732011 0.502187
1027 1 0.606658 0.0776248 0.459417
2341 1 0.645655 0.0750368 0.51899
2342 1 0.649702 0.0805951 0.464417
2343 1 0.653472 0.0858907 0.49562
2344 1 0.658547 0.0903915 0.479424
1102 1 0.690372 0.0767541 0.411055
1104 1 0.681759 0.0876225 0.532268
1103 1 0.686179 0.0823406 0.582404
636 1 0.819964 0.0765704 0.508934
637 3 0.82522 0.0810192 0.466406
1617 3 0.827665 0.0882059 0.482979
1956 1 0.924772 0.0805511 0.523779
1957 1 0.921762 0.0863352 0.449995
1955 1 0.92824 0.0750169 0.464485
1998 1 0.00995846 0.0914533 0.436937
1997 1 0.00418585 0.0947777 0.473147
96 1 0.0534654 0.0925585 0.575818
95 1 0.0583741 0.0968739 0.487316
94 1 0.0633103 0.10125 0.574307
93 1 0.0683858 0.105712 0.410596
615 1 0.177591 0.101422 0.526911
614 1 0.173592 0.106687 0.540014
616 3 0.182285 0.0962665 0.509194
826 3 0.189907 0.0961922 0.496077
825 1 0.19629 0.0982619 0.437693
824 1 0.20245 0.100949 0.499544
823 1 0.208603 0.103508 0.490024
822 1 0.214901 0.105652 0.506346
821 1 0.221479 0.107475 0.563279
373 1 0.240449 0.105805 0.538502
375 1 0.250955 0.0972718 0.505167
374 1 0.246097 0.101953 0.545074
376 1 0.255807 0.0927813 0.466084
459 1 0.290734 0.0933943 0.524301
458 1 0.296198 0.0967926 0.45949
457 1 0.301734 0.100602 0.458173
456 2 0.3067 0.104846 0.577158
2768 1 0.46587 0.0963004 0.553904
2769 1 0.46495 0.102751 0.485963
1299 1 0.535875 0.0959935 0.432399
1298 1 0.540441 0.100948 0.496407
1297 1 0.545038 0.105881 0.456103
2543 1 0.563688 0.107051 0.549355
2544 1 0.570152 0.104637 0.530846
2545 1 0.576564 0.102868 0.466401
2546 1 0.582722 0.100448 0.451301
2548 3 0.595121 0.0954464 0.504919
2547 1 0.588729 0.0977723 0.510352
1666 3 0.602602 0.096016 0.455942
1665 1 0.606939 0.101117 0.485243
1664 1 0.611719 0.105863 0.551216
2345 3 0.664232 0.0944566 0.524176
1106 3 0.671391 0.0962881 0.485858
2758 3 0.666366 0.101838 0.491582
2757 1 0.664434 0.108288 0.460543
1105 1 0.676916 0.0921198 0.42027
1616 1 0.833255 0.0922274 0.645351
1615 1 0.839147 0.0958218 0.48163
1614 1 0.844917 0.099554 0.505954
1613 1 0.850354 0.103406 0.556072
1612 1 0.855719 0.107245 0.468443
1460 1 0.886999 0.108805 0.411732
1462 1 0.900238 0.10747 0.415988
1463 3 0.906798 0.107495 0.583811
1461 1 0.893615 0.107715 0.474143
1958 1 0.919176 0.0925942 0.565059
1959 1 0.916499 0.0986573 0.478538
1960 3 0.913847 0.104926 0.540538
1996 2 0.998904 0.0987808 0.489109
2625 3 0.993349 0.103906 0.444692
92 2 0.0733693 0.110156 0.511728
2703 2 0.0806825 0.111979 0.430158
2704 1 0.0849036 0.117322 0.395193
2705 1 0.08904 0.122624 0.534787
611 1 0.159945 0.121213 0.567899
610 2 0.154919 0.12595 0.526613
612 1 0.164689 0.116565 0.404665
613 1 0.169376 0.111891 0.454201
372 2 0.235269 0.110269 0.497698
820 2 0.227714 0.109866 0.545781
2248 2 0.231154 0.116548 0.444725
2249 1 0.232437 0.123135 0.51615
2770 1 0.464309 0.109216 0.57048
2771 1 0.464369 0.115544 0.488288
2772 3 0.464545 0.122298 0.520487
1296 2 0.550048 0.110311 0.451372
2542 2 0.557395 0.110179 0.54658
358 2 0.553724 0.116768 0.517533
359 1 0.554891 0.123443 0.475803
1663 1 0.616759 0.110077 0.516024
1662 1 0.622203 0.113924 0.440459
1661 1 0.628129 0.117337 0.456927
1660 2 0.633858 0.120606 0.512729
2754 1 0.657612 0.126762 0.551406
2756 1 0.662725 0.114671 0.487538
2755 1 0.660181 0.12078 0.437583
1611 2 0.860604 0.111656 0.492117
1457 2 0.867625 0.114428 0.529103
1709 2 0.861638 0.119132 0.486593
1710 1 0.861379 0.125736 0.53915
1458 1 0.874005 0.111812 0.529663
1459 1 0.880447 0.110031 0.550044
1092 3 0.912584 0.112336 0.500091
1091 1 0.915196 0.118638 0.431102
1090 1 0.917017 0.125057 0.502276
2624 1 0.99366 0.110453 0.539865
2623 1 0.993753 0.117168 0.556395
2622 1 0.994983 0.12355 0.498604
2706 1 0.0934713 0.127842 0.406388
2707 1 0.0975075 0.133008 0.517136
2708 1 0.101946 0.13833 0.548037
2709 3 0.105973 0.143815 0.45728
2371 1 0.126472 0.142388 0.506876
2372 1 0.119827 0.144268 0.443334
2370 1 0.132817 0.14009 0.436859
2369 1 0.138878 0.137392 0.428471
2368 1 0.1452 0.135067 0.52558
2367 2 0.151333 0.132498 0.442837
2250 1 0.233516 0.129918 0.514693
2251 1 0.23371 0.136255 0.460094
2252 1 0.234937 0.14289 0.495707
929 1 0.451908 0.138304 0.468417
928 1 0.447898 0.143705 0.472287
903 3 0.468916 0.128312 0.403862
930 1 0.45637 0.133553 0.559231
931 3 0.461654 0.129235 0.531559
902 1 0.475192 0.130778 0.555645
901 1 0.481271 0.133629 0.550845
900 1 0.487085 0.136925 0.496076
899 1 0.492873 0.140247 0.556021
898 1 0.49874 0.14382 0.501328
360 1 0.55591 0.130015 0.495905
361 1 0.55629 0.136739 0.460223
362 1 0.558073 0.14296 0.518213
1972 1 0.617571 0.136858 0.534909
1974 3 0.60424 0.137314 0.435997
1973 1 0.610997 0.136401 0.51249
1971 1 0.62411 0.137926 0.585468
1970 1 0.630865 0.138789 0.461808
1969 1 0.637393 0.140006 0.547499
1968 2 0.644225 0.141145 0.485577
2752 2 0.65118 0.138421 0.417658
2753 1 0.654859 0.132955 0.507241
1711 1 0.862363 0.132268 0.502522
1712 1 0.863506 0.13873 0.540469
1713 1 0.864925 0.145213 0.509334
1089 1 0.918535 0.131575 0.513647
1088 1 0.918417 0.138183 0.529352
1087 1 0.91793 0.144754 0.506503
2621 1 0.996493 0.130213 0.465664
2620 1 0.997854 0.137113 0.475107
2619 2 0.997932 0.143837 0.448761
2585 1 0.00630403 0.154682 0.48381
2586 1 0.0112724 0.159448 0.471178
2584 2 0.00125134 0.150312 0.534163
1561 3 0.107668 0.151241 0.470045
1560 1 0.104466 0.156959 0.577314
1559 1 0.100347 0.162102 0.550631
2373 3 0.113236 0.146225 0.447381
2352 3 0.23578 0.163315 0.515487
2253 1 0.235547 0.149398 0.531489
2254 3 0.236935 0.155908 0.578806
2394 3 0.242835 0.160482 0.517081
926 1 0.441057 0.155564 0.548205
927 1 0.444124 0.149474 0.543367
925 2 0.439115 0.161983 0.431604
897 2 0.504917 0.14669 0.461375
363 1 0.559714 0.149545 0.563485
364 3 0.561463 0.156049 0.511237
1470 3 0.558005 0.162812 0.565046
168 3 0.565595 0.162418 0.481249
2598 2 0.650132 0.145694 0.552137
2599 1 0.651611 0.15227 0.430546
2600 1 0.6528 0.15883 0.505209
1826 1 0.72429 0.159009 0.458413
1827 3 0.727627 0.153084 0.48318
1714 1 0.866422 0.151849 0.432045
1715 3 0.868084 0.158287 0.483671
1908 1 0.893385 0.162967 0.540184
1907 1 0.899935 0.161615 0.55336
1906 1 0.906108 0.159306 0.516626
1086 2 0.917083 0.151152 0.452959
1905 2 0.912368 0.156954 0.500083
1177 2 0.919758 0.158252 0.507117
1178 1 0.925394 0.161914 0.445124
2643 1 0.976085 0.159366 0.544953
2644 1 0.97069 0.16352 0.47686
2642 1 0.981907 0.155769 0.525159
2640 2 0.993699 0.149952 0.529316
2641 1 0.98775 0.152711 0.448143
2587 1 0.0156577 0.164451 0.576376
2588 1 0.0195542 0.169892 0.631311
2589 1 0.0237943 0.174788 0.507437
2590 3 0.0274394 0.18024 0.470803
1342 1 0.0479099 0.181622 0.564608
1341 1 0.0547371 0.18146 0.532279
1557 1 0.0905883 0.172438 0.593858
1556 1 0.0855369 0.177458 0.383801
1558 1 0.0954808 0.167173 0.426743
2348 1 0.215259 0.180817 0.505574
2349 1 0.220056 0.176296 0.523019
2351 1 0.230303 0.167192 0.472211
2350 1 0.225338 0.171838 0.469858
2393 1 0.248527 0.16404 0.492589
2392 1 0.253755 0.168361 0.51254
2391 1 0.257971 0.173669 0.520901
2390 1 0.261721 0.179045 0.432733
2080 2 0.354966 0.180869 0.503273
81 1 0.418147 0.178964 0.524546
79 1 0.429393 0.171707 0.500517
78 2 0.435221 0.168469 0.441845
80 1 0.42368 0.17523 0.445358
862 2 0.442777 0.168583 0.439299
863 1 0.448335 0.172596 0.551246
864 1 0.453424 0.176553 0.487808
865 1 0.45898 0.180433 0.50477
1467 1 0.54345 0.176337 0.497554
1466 1 0.538763 0.181062 0.523585
1468 1 0.547835 0.171322 0.483356
1469 1 0.55292 0.166919 0.470339
167 1 0.571495 0.165658 0.533981
166 1 0.577276 0.169098 0.518477
165 1 0.58305 0.172651 0.581246
164 1 0.588647 0.176528 0.597609
163 1 0.593676 0.180702 0.486311
2601 1 0.654017 0.165358 0.427934
2602 1 0.654221 0.172116 0.409367
2603 1 0.654213 0.178654 0.559735
1825 1 0.721893 0.165175 0.483689
1824 1 0.718833 0.171248 0.54346
1823 1 0.715786 0.176948 0.486333
1911 3 0.873318 0.163735 0.565035
1910 1 0.879955 0.164465 0.511263
1909 1 0.886742 0.164197 0.494587
1179 1 0.930999 0.165602 0.493671
1180 1 0.936646 0.168978 0.549368
1181 1 0.942595 0.172045 0.399011
1182 1 0.94854 0.174733 0.447142
1183 3 0.954972 0.176949 0.516144
2646 3 0.961715 0.173809 0.451556
2674 3 0.961063 0.181295 0.486283
2645 1 0.965858 0.168311 0.517589
19 1 0.0196024 0.198226 0.521922
20 1 0.0240766 0.193277 0.570711
1344 3 0.0343184 0.183387 0.554879
21 3 0.0281322 0.187774 0.531855
1343 1 0.0410836 0.18241 0.408785
1340 1 0.06138 0.181901 0.443631
1339 1 0.0680016 0.183093 0.550812
1338 2 0.0741795 0.185326 0.615337
1555 2 0.0807894 0.182527 0.472303
603 2 0.0797819 0.190086 0.514919
604 1 0.0805981 0.196787 0.579707
2347 1 0.211471 0.18601 0.525103
2346 2 0.20768 0.191464 0.614915
2066 2 0.207632 0.198619 0.449211
2389 1 0.265516 0.184305 0.358745
2388 2 0.269142 0.189818 0.553065
302 2 0.268835 0.197314 0.507316
995 2 0.275485 0.193759 0.505161
996 1 0.28211 0.195874 0.460332
997 1 0.287999 0.19837 0.531116
332 1 0.338705 0.194282 0.456025
333 1 0.333927 0.198712 0.597073
331 1 0.343941 0.189979 0.514843
2081 1 0.361576 0.182308 0.470851
330 2 0.349221 0.185778 0.393391
2082 1 0.368157 0.183595 0.576348
2083 1 0.374674 0.184968 0.505275
2084 1 0.380997 0.186964 0.515564
2085 1 0.387509 0.189177 0.335577
2086 3 0.393947 0.191479 0.4748
210 3 0.399463 0.196634 0.462922
82 1 0.412687 0.18281 0.529625
84 3 0.400947 0.189289 0.522703
83 1 0.407015 0.186651 0.484875
866 1 0.464539 0.184269 0.527249
867 1 0.469696 0.188004 0.532251
868 3 0.474494 0.192396 0.544825
1812 1 0.488603 0.193818 0.514314
1813 3 0.48182 0.194393 0.463132
406 3 0.476385 0.199733 0.475222
1811 1 0.495477 0.192601 0.386806
1810 1 0.502166 0.191468 0.510494
1809 1 0.508941 0.1921 0.505086
1808 1 0.515807 0.192118 0.500754
1807 2 0.522388 0.193205 0.561502
547 2 0.527995 0.198393 0.563104
1464 2 0.52957 0.191028 0.601601
1465 1 0.534226 0.186154 0.506209
989 1 0.597611 0.198816 0.511217
162 2 0.598587 0.185136 0.425571
988 2 0.599639 0.192506 0.482945
947 1 0.612517 0.1878 0.456971
946 2 0.605613 0.187914 0.461488
949 1 0.625746 0.189422 0.512729
950 1 0.632304 0.189737 0.492834
948 1 0.619206 0.188634 0.423815
951 1 0.639091 0.189552 0.41866
952 3 0.646879 0.189669 0.450747
2793 3 0.653773 0.193654 0.370098
2604 3 0.654038 0.185997 0.485131
2611 3 0.660586 0.190165 0.484851
2610 1 0.668697 0.190789 0.567617
2609 1 0.675258 0.190929 0.515724
2608 1 0.682008 0.191189 0.549565
2607 1 0.68892 0.191493 0.314965
2606 1 0.696032 0.191904 0.457577
2605 2 0.702725 0.192326 0.478769
2115 2 0.708953 0.196663 0.466264
1821 2 0.709451 0.188901 0.491764
1822 1 0.712613 0.183022 0.601031
2673 1 0.965224 0.186886 0.499713
2672 1 0.969732 0.191615 0.574069
2671 1 0.97426 0.196495 0.470886
18 1 0.0143634 0.202292 0.4957
17 1 0.0084899 0.205524 0.456873
16 1 0.00234769 0.208235 0.508073
605 1 0.0814032 0.203431 0.504444
606 1 0.0812993 0.210197 0.526965
607 1 0.0811268 0.216864 0.527715
2067 1 0.210034 0.20505 0.478058
2068 1 0.213607 0.210632 0.572556
2069 1 0.218287 0.21532 0.577027
305 1 0.256645 0.213728 0.404861
303 1 0.265056 0.202929 0.559642
304 1 0.26109 0.208433 0.477693
998 1 0.293676 0.201572 0.472938
999 1 0.299365 0.204938 0.492672
1000 1 0.305069 0.208267 0.430277
1001 3 0.310717 0.211483 0.500706
336 3 0.318266 0.211081 0.413811
335 1 0.323627 0.207278 0.496068
2163 3 0.315105 0.217788 0.512376
334 1 0.328899 0.203257 0.553322
209 1 0.399606 0.203574 0.476413
207 1 0.401599 0.216581 0.478845
208 1 0.400083 0.21013 0.512314
404 1 0.473283 0.212786 0.416268
405 1 0.474446 0.206209 0.534975
548 1 0.529295 0.204943 0.475568
549 1 0.530006 0.211563 0.505862
550 1 0.530668 0.218026 0.461764
990 1 0.596035 0.20541 0.477916
991 1 0.594961 0.211948 0.471123
2792 1 0.653277 0.201023 0.454944
2790 1 0.652161 0.214347 0.509352
2791 1 0.65298 0.207718 0.484757
2116 1 0.713255 0.201838 0.580418
2117 1 0.717586 0.206867 0.484836
2118 1 0.72188 0.211848 0.425839
2119 1 0.726506 0.216698 0.486929
2670 1 0.978938 0.201163 0.513912
2669 1 0.983589 0.205876 0.452726
2668 2 0.988509 0.210491 0.493009
15 2 0.995998 0.210637 0.55837
2059 2 0.992149 0.217081 0.466485
608 1 0.0816126 0.223524 0.5023
609 3 0.0820613 0.230063 0.452377
2070 1 0.22318 0.219599 0.473562
2071 1 0.228707 0.223713 0.579149
2072 3 0.23433 0.227594 0.427297
306 1 0.25232 0.218878 0.602446
1050 3 0.238287 0.234064 0.495282
308 3 0.241798 0.227253 0.500886
307 1 0.247566 0.223528 0.536302
2162 1 0.314485 0.224356 0.450608
2161 1 0.314016 0.231094 0.470369
205 1 0.40445 0.229483 0.472436
206 1 0.402765 0.223083 0.519026
204 2 0.405215 0.236264 0.503777
402 1 0.472139 0.226096 0.544332
403 1 0.472405 0.219419 0.590286
401 1 0.47329 0.232432 0.516703
552 1 0.528633 0.231248 0.515072
551 1 0.530111 0.2247 0.519235
992 1 0.595074 0.218757 0.490162
993 1 0.595984 0.225369 0.466742
994 3 0.597985 0.231736 0.415648
2787 2 0.648707 0.234579 0.522962
2788 1 0.649969 0.227825 0.433974
2789 1 0.651094 0.220879 0.572509
2120 1 0.731314 0.221378 0.594798
2121 3 0.736402 0.225978 0.453001
2009 3 0.740695 0.231988 0.518661
2443 3 0.74399 0.225152 0.509175
2442 1 0.750846 0.22383 0.394265
2441 1 0.757434 0.222522 0.499086
2440 1 0.764102 0.221301 0.522948
2439 1 0.770736 0.221075 0.535941
2438 1 0.777437 0.221105 0.416674
2437 2 0.784202 0.221553 0.488721
841 2 0.787737 0.228294 0.503586
842 1 0.793042 0.232505 0.49961
2060 1 0.991191 0.223949 0.468591
2061 1 0.990268 0.230807 0.475926
2075 1 0.0550493 0.252383 0.501478
2076 1 0.0600321 0.247963 0.521708
2077 1 0.065847 0.244204 0.435436
2078 1 0.0721033 0.240427 0.657724
2079 3 0.0782178 0.236577 0.47234
1855 3 0.0857508 0.236635 0.521595
1854 1 0.0909047 0.240507 0.510581
1853 1 0.095067 0.245437 0.569039
1852 1 0.0998877 0.250304 0.546208
1049 1 0.239909 0.240521 0.543923
1048 1 0.242859 0.246464 0.550856
1047 1 0.246721 0.251852 0.525344
2158 1 0.310886 0.250742 0.616343
2160 1 0.313611 0.237622 0.497845
2159 1 0.312351 0.244213 0.556041
1737 2 0.403057 0.243369 0.59292
1738 1 0.407567 0.248011 0.50304
1739 1 0.412945 0.252299 0.493803
1451 1 0.469793 0.250709 0.402926
1450 2 0.474754 0.246399 0.59202
400 2 0.474988 0.238799 0.580138
764 2 0.481311 0.242866 0.517686
765 1 0.488074 0.243707 0.535122
766 1 0.494634 0.244341 0.421488
767 1 0.501277 0.244485 0.502847
768 1 0.508211 0.244451 0.421102
769 1 0.514752 0.243963 0.504552
770 3 0.52166 0.243236 0.494668
553 3 0.52714 0.237874 0.497424
2030 3 0.528952 0.245093 0.509437
2029 1 0.533296 0.250182 0.468427
1096 1 0.579656 0.251263 0.443567
1097 1 0.58525 0.247594 0.495589
1098 1 0.590243 0.243408 0.494329
1099 3 0.594955 0.238537 0.462171
1330 3 0.602446 0.237696 0.458469
1329 1 0.609246 0.238511 0.520375
1328 1 0.616016 0.239328 0.443719
1327 1 0.622616 0.240428 0.583349
1326 1 0.629289 0.240995 0.505294
1325 1 0.635927 0.240221 0.494509
1324 2 0.64275 0.239264 0.490768
421 2 0.649898 0.241959 0.495957
422 1 0.655332 0.245724 0.530991
423 1 0.660521 0.249922 0.432363
424 1 0.665831 0.254038 0.45491
2008 1 0.739182 0.23855 0.515058
2007 1 0.739264 0.24519 0.493707
2006 1 0.738674 0.251989 0.502416
843 1 0.797723 0.237316 0.555762
844 1 0.802523 0.242022 0.425086
845 1 0.807502 0.246691 0.550321
846 1 0.812098 0.251249 0.527309
2062 1 0.990332 0.237496 0.514969
2063 1 0.990491 0.244336 0.500903
2064 1 0.991717 0.250914 0.573851
1545 1 0.0121354 0.262983 0.554685
1546 1 0.00560175 0.263083 0.433531
1544 1 0.0190605 0.262746 0.538109
1543 1 0.0257268 0.263478 0.505713
1542 1 0.0324176 0.264678 0.524731
2074 1 0.0507512 0.25742 0.519908
2073 2 0.0460011 0.262324 0.55129
1541 2 0.0390984 0.265128 0.473958
2213 2 0.0451807 0.269722 0.428298
1851 1 0.103934 0.255905 0.566247
1850 1 0.107281 0.261735 0.408726
1849 2 0.110354 0.267877 0.526892
1030 2 0.116555 0.272326 0.50778
1046 1 0.250016 0.257673 0.514578
1045 1 0.253935 0.263049 0.509824
1044 2 0.258576 0.267783 0.534819
2312 1 0.271934 0.269576 0.431377
2311 2 0.265403 0.270852 0.558244
2314 1 0.285187 0.267304 0.478147
2313 1 0.278645 0.268323 0.533326
2315 1 0.29172 0.266538 0.585218
2316 1 0.298467 0.265507 0.57154
2317 3 0.305077 0.26342 0.564937
2157 2 0.309368 0.25724 0.491116
441 3 0.312378 0.264197 0.439725
440 1 0.31683 0.2687 0.538416
1740 1 0.41859 0.256106 0.539359
1741 1 0.423912 0.260535 0.582707
1742 1 0.429279 0.264608 0.467002
1743 3 0.434599 0.268514 0.549956
1455 1 0.447968 0.265792 0.53038
1454 1 0.453985 0.263065 0.580083
1456 3 0.442047 0.268767 0.432133
1452 1 0.464459 0.255146 0.445797
1453 1 0.45951 0.259188 0.553683
2028 1 0.53726 0.255589 0.564445
2027 1 0.5412 0.261106 0.444064
2026 1 0.545155 0.26661 0.523953
2025 1 0.549398 0.27176 0.534215
1093 2 0.562035 0.261014 0.621697
1095 1 0.573877 0.254836 0.460434
1094 1 0.568048 0.258276 0.505672
425 1 0.670605 0.258401 0.533053
426 1 0.674884 0.263451 0.54569
427 3 0.678996 0.268882 0.540243
504 3 0.686156 0.271164 0.620274
503 1 0.693031 0.271438 0.51016
502 1 0.699674 0.272065 0.552563
2004 1 0.734699 0.264545 0.469702
2005 1 0.737001 0.258509 0.558987
2003 2 0.731638 0.270664 0.526092
847 3 0.815897 0.256609 0.525752
924 3 0.814916 0.26414 0.557006
923 1 0.81254 0.270429 0.448425
1918 3 0.821812 0.261216 0.488733
1917 1 0.828363 0.260493 0.449005
1916 1 0.834956 0.260278 0.477086
1915 1 0.841826 0.261058 0.496677
1914 1 0.848129 0.263076 0.501448
1913 1 0.854235 0.266101 0.491607
1912 2 0.859962 0.269793 0.506882
1547 3 0.998715 0.262683 0.462495
2065 3 0.993303 0.257451 0.496719
2023 3 0.99158 0.264835 0.556129
2022 1 0.987819 0.270116 0.458671
2214 1 0.0476237 0.275867 0.490933
2215 1 0.0511208 0.281456 0.521163
2216 1 0.0560041 0.285985 0.581249
2217 1 0.0611663 0.290547 0.469317
584 1 0.100394 0.284689 0.432198
583 1 0.10518 0.280336 0.488587
585 1 0.0953167 0.288873 0.491835
1031 1 0.122824 0.274682 0.492169
582 2 0.109736 0.275178 0.385819
1032 1 0.128912 0.277411 0.438676
1033 1 0.134735 0.280749 0.53417
1034 1 0.140645 0.283761 0.457208
1035 1 0.146922 0.286335 0.430181
1036 3 0.152887 0.288726 0.607348
1442 3 0.160146 0.288948 0.467652
2495 1 0.254312 0.287169 0.403066
2494 1 0.25686 0.28133 0.488049
2493 2 0.25938 0.275214 0.505242
439 1 0.321287 0.273985 0.53766
438 1 0.325021 0.279591 0.516481
437 1 0.32827 0.285404 0.558287
1188 1 0.435371 0.288233 0.563719
1189 1 0.436613 0.281624 0.517618
1190 3 0.43822 0.275099 0.56832
2024 2 0.554153 0.276291 0.491416
1625 2 0.560362 0.280398 0.406091
337 2 0.553864 0.283966 0.529185
338 1 0.551777 0.290341 0.595013
1626 1 0.56693 0.279482 0.453889
1627 1 0.573468 0.279525 0.592
1628 1 0.580221 0.279714 0.539008
1629 1 0.5868 0.280566 0.51179
1630 1 0.592846 0.282659 0.512866
1631 3 0.598451 0.28632 0.508765
2282 3 0.605972 0.287659 0.505572
2281 1 0.612542 0.287405 0.502489
2280 1 0.619081 0.288573 0.488253
2279 1 0.625705 0.290372 0.525351
1146 1 0.672677 0.286825 0.45524
1147 1 0.677307 0.281916 0.427499
1148 3 0.680921 0.276121 0.479796
501 1 0.706179 0.273001 0.516002
500 1 0.712695 0.273995 0.403497
499 1 0.71918 0.27502 0.457985
498 2 0.726027 0.275559 0.427876
1380 2 0.732951 0.278187 0.523373
1381 1 0.736896 0.283634 0.469959
1382 1 0.740114 0.289311 0.590277
922 1 0.810356 0.276798 0.48495
921 1 0.809334 0.283754 0.448966
920 1 0.807642 0.29018 0.49114
576 1 0.860414 0.283733 0.450089
575 2 0.861619 0.277295 0.518682
577 1 0.858368 0.290176 0.487113
2019 1 0.977019 0.287568 0.517211
2020 1 0.98063 0.281523 0.493507
2021 1 0.983852 0.275422 0.501962
2218 1 0.0662769 0.294969 0.587686
2219 3 0.0715118 0.299383 0.525479
1372 3 0.0747233 0.30608 0.59519
588 3 0.0789456 0.300108 0.429756
587 1 0.0846893 0.2968 0.428345
586 1 0.0902 0.293123 0.45612
1441 1 0.165055 0.293398 0.492123
1440 1 0.169918 0.298038 0.421678
1439 1 0.174656 0.302694 0.54274
1438 1 0.179579 0.307332 0.491984
2497 1 0.249248 0.299798 0.507268
2498 1 0.246517 0.305753 0.503414
2496 1 0.251657 0.293403 0.425946
436 1 0.331574 0.29114 0.459755
435 2 0.335071 0.297096 0.461994
2255 2 0.333493 0.304401 0.468409
2150 2 0.340512 0.30206 0.59172
2151 1 0.346715 0.30451 0.418636
2152 1 0.35294 0.307039 0.528951
1186 1 0.431553 0.301183 0.377667
1187 1 0.433481 0.29456 0.511637
1185 1 0.429309 0.307688 0.564788
340 1 0.548033 0.303199 0.493031
339 1 0.549831 0.297034 0.435168
1062 1 0.597442 0.30667 0.607942
1063 1 0.599045 0.300215 0.488225
1064 3 0.601185 0.2935 0.564128
2278 1 0.631965 0.293025 0.498896
2277 1 0.637612 0.296889 0.515334
2276 2 0.643117 0.300332 0.463471
1142 2 0.650389 0.302327 0.525971
708 2 0.644961 0.307674 0.477224
1145 1 0.667376 0.291017 0.519221
1143 1 0.656369 0.298963 0.510862
1144 1 0.661861 0.294908 0.389542
1383 1 0.743547 0.295076 0.550781
1384 1 0.747081 0.300801 0.409496
1385 1 0.751039 0.306513 0.464407
918 2 0.806198 0.303612 0.546323
919 1 0.806408 0.296869 0.51232
1499 2 0.800602 0.308615 0.477185
579 1 0.855777 0.303225 0.482805
578 1 0.857202 0.296793 0.47794
2018 1 0.974748 0.293866 0.517463
1982 2 0.969597 0.307588 0.540388
2017 2 0.972676 0.300488 0.499927
1072 2 0.977035 0.306669 0.488765
1077 1 0.00393242 0.326852 0.488496
1369 1 0.0741064 0.326159 0.483786
1370 1 0.074238 0.319274 0.44106
1371 1 0.0743966 0.312809 0.580972
1437 1 0.18409 0.312067 0.488744
1436 2 0.189051 0.316532 0.578747
1065 2 0.196268 0.315859 0.450215
1066 1 0.20285 0.315666 0.379952
1067 1 0.20966 0.315528 0.442655
1068 1 0.216335 0.315335 0.555511
1069 1 0.223391 0.315855 0.452923
1070 1 0.230161 0.315455 0.410018
1071 3 0.236856 0.314347 0.47926
2499 3 0.243683 0.311821 0.580941
2366 3 0.242591 0.319133 0.49862
2365 1 0.245961 0.325045 0.487788
2258 1 0.320926 0.32064 0.53995
2257 1 0.324656 0.314841 0.443836
2259 1 0.317197 0.326157 0.465543
2256 1 0.328809 0.30946 0.501009
2153 1 0.358789 0.309654 0.51619
2154 1 0.364105 0.313898 0.436212
2155 1 0.36896 0.318587 0.474104
2156 3 0.373362 0.323709 0.4237
1596 3 0.380774 0.324357 0.504774
1594 1 0.394107 0.322319 0.472225
1595 1 0.387526 0.323804 0.483498
1593 1 0.400673 0.321016 0.544834
1591 1 0.413925 0.318077 0.492606
1592 1 0.407274 0.319776 0.422622
1590 2 0.42035 0.317322 0.577224
1184 2 0.42701 0.314161 0.488326
2682 2 0.426581 0.321688 0.542553
2683 1 0.431722 0.326072 0.483644
342 1 0.544304 0.315886 0.486352
343 3 0.543287 0.322707 0.532901
341 1 0.546135 0.309625 0.492339
1061 1 0.596352 0.313302 0.497778
1060 1 0.594916 0.320021 0.493071
1059 1 0.59355 0.326511 0.528736
710 1 0.643246 0.320804 0.439852
709 1 0.644076 0.314245 0.568765
1386 3 0.754509 0.312282 0.530865
1505 3 0.761133 0.315867 0.513055
1232 3 0.754765 0.319851 0.483683
1231 1 0.751757 0.325915 0.546403
1504 1 0.767814 0.315008 0.474645
1503 1 0.774536 0.314318 0.511725
1502 1 0.781274 0.313267 0.448142
1500 1 0.794126 0.311165 0.539652
1501 1 0.787676 0.312169 0.571824
2430 2 0.807759 0.311 0.481437
2431 1 0.813839 0.313815 0.522633
2432 1 0.820217 0.316369 0.639026