ITEM: TIMESTEP
0
ITEM: NUMBER OF ATOMS
1008
ITEM: BOX BOUNDS pp pp pp
-6.6911374900124301e+01 -1.7635625099875906e+01
-6.6911374900124301e+01 -1.7635625099875906e+01
-1.0000000000000000e+00 1.0000000000000000e+00
ITEM: ATOMS id type xs ys zs
263 4 0.0152178 0.0493306 0.495528
613 4 0.030151 0.0202008 0.496249
612 4 0.0344624 0.0382715 0.51191
110 4 0.0525057 0.0245217 0.503594
109 4 0.0559273 0.044094 0.488503
666 2 0.0349775 0.0564598 0.53586
611 4 0.0373697 0.0571881 0.508107
834 2 0.0577826 0.0605608 0.50832
111 4 0.0478953 0.0051967 0.502242
614 1 0.0281436 0.00153974 0.50735
262 1 0.030025 0.062066 0.500708
203 3 0.0639836 0.00395744 0.513697
835 4 0.0770613 0.0510403 0.495908
767 4 0.0748725 0.0290372 0.499403
766 1 0.0841262 0.0484041 0.496453
836 4 0.0971671 0.0492205 0.482433
837 4 0.118358 0.0524724 0.50585
768 4 0.0693216 0.00904783 0.491309
838 1 0.139216 0.0574171 0.497977
866 1 0.178675 0.0176019 0.503862
867 4 0.183727 0.0376353 0.501219
868 3 0.192631 0.0556154 0.480107
783 1 0.330861 0.0296841 0.53135
782 1 0.334285 0.0496541 0.474646
784 3 0.328047 0.0100274 0.493988
56 3 0.442878 0.0574678 0.50005
55 4 0.451922 0.0391723 0.504234
54 1 0.454195 0.0194882 0.504805
343 3 0.456974 0.0395759 0.49204
356 4 0.476441 0.0447412 0.506482
342 4 0.470407 0.0231606 0.499759
355 4 0.492126 0.0321063 0.49906
341 4 0.486193 0.00928202 0.502861
357 3 0.465439 0.0608911 0.501075
53 4 0.462825 0.00144117 0.504289
354 1 0.509955 0.0217652 0.515321
353 4 0.520161 0.00576005 0.52606
245 3 0.592694 0.047993 0.490837
244 4 0.581631 0.0309589 0.487331
328 1 0.612628 0.0552239 0.498866
243 1 0.570655 0.013726 0.501764
327 1 0.624658 0.0385306 0.489503
326 1 0.635609 0.0214857 0.499658
325 4 0.645745 0.00380406 0.485632
264 4 0.999143 0.0385657 0.503346
265 1 0.980344 0.0303983 0.479141
266 3 0.961047 0.0244363 0.491852
108 4 0.0593414 0.0645315 0.502036
667 4 0.019968 0.0714668 0.491193
610 2 0.0423969 0.0774133 0.512017
261 4 0.0421618 0.0794001 0.499341
260 2 0.0485788 0.0987633 0.480721
226 4 0.051242 0.0998354 0.503434
227 1 0.0396112 0.117108 0.490722
668 4 0.00228938 0.0825681 0.50811
225 2 0.0643612 0.0828899 0.514438
107 4 0.0665697 0.0833455 0.493546
106 2 0.0702989 0.104718 0.488635
765 4 0.0871553 0.0700547 0.517103
764 2 0.0865888 0.0892334 0.510091
449 2 0.0921132 0.111323 0.485224
839 4 0.158857 0.0642001 0.489701
840 3 0.177752 0.0729099 0.505218
371 3 0.200362 0.077025 0.490079
370 4 0.219823 0.0852773 0.516281
369 1 0.238745 0.0927889 0.482276
368 4 0.25798 0.102875 0.48733
576 4 0.299752 0.11051 0.490596
367 4 0.276143 0.114701 0.474316
577 1 0.284736 0.124537 0.501376
575 2 0.318033 0.101496 0.517713
781 1 0.337332 0.0694347 0.504655
780 4 0.338029 0.090466 0.481355
345 4 0.358722 0.0989023 0.496728
344 2 0.339628 0.108435 0.490746
779 4 0.340142 0.111355 0.495352
290 4 0.361194 0.120865 0.497331
288 2 0.322659 0.124048 0.496192
346 4 0.375315 0.0889424 0.500906
291 4 0.378399 0.1112 0.476591
347 4 0.391806 0.0777777 0.488269
348 1 0.410689 0.0723375 0.520939
349 4 0.430762 0.0734006 0.490189
292 4 0.395565 0.100045 0.497811
294 3 0.428957 0.075709 0.475071
293 4 0.412185 0.0872132 0.517964
994 3 0.438332 0.0967842 0.496644
993 1 0.445533 0.116001 0.507063
350 3 0.451349 0.0785254 0.498155
329 3 0.599039 0.0699332 0.479931
958 1 0.892112 0.119882 0.511893
959 3 0.900074 0.101475 0.517233
672 3 0.922058 0.0951916 0.486676
671 1 0.942387 0.09551 0.489914
669 1 0.982566 0.0915852 0.500357
670 4 0.962934 0.0956373 0.479503
228 4 0.0297043 0.135158 0.49983
229 1 0.0225635 0.154123 0.513068
728 3 0.0250007 0.174379 0.503269
230 4 0.0200584 0.17516 0.493299
450 1 0.0935338 0.132056 0.506817
451 4 0.0911144 0.152441 0.502359
452 4 0.0832388 0.171428 0.498144
825 1 0.187622 0.18682 0.50358
826 3 0.202538 0.17329 0.513833
580 1 0.238914 0.164111 0.465491
581 3 0.224441 0.17845 0.493245
579 1 0.252658 0.149574 0.492052
366 4 0.28971 0.130052 0.495149
365 2 0.306945 0.140668 0.518176
578 4 0.267836 0.135707 0.521309
289 1 0.341812 0.125085 0.517371
491 2 0.313126 0.162517 0.510568
778 2 0.34503 0.130152 0.52976
492 1 0.325472 0.178802 0.512301
505 2 0.329061 0.145876 0.498817
507 4 0.371771 0.14114 0.510797
506 4 0.350093 0.140938 0.512951
508 1 0.392408 0.148728 0.502555
509 1 0.410248 0.159265 0.525863
510 4 0.431973 0.164906 0.500239
511 3 0.449257 0.174435 0.496825
992 4 0.448249 0.138525 0.504788
167 4 0.450025 0.180398 0.499655
991 4 0.456505 0.158761 0.515461
990 4 0.472114 0.174366 0.499317
166 1 0.468365 0.166902 0.504224
165 4 0.487118 0.15856 0.510351
989 4 0.493287 0.179942 0.497268
164 4 0.506205 0.159805 0.50436
988 2 0.51421 0.181495 0.488708
163 1 0.523325 0.168304 0.469792
162 2 0.537248 0.182044 0.505149
434 3 0.569097 0.178154 0.512429
955 4 0.882719 0.17946 0.501831
956 4 0.884969 0.15981 0.487707
957 4 0.888359 0.140156 0.490427
981 2 0.88811 0.17733 0.489189
982 4 0.906865 0.167701 0.501222
8 2 0.909577 0.170567 0.496958
983 1 0.928581 0.162315 0.484308
960 2 0.926649 0.185744 0.506061
984 1 0.948498 0.165781 0.497691
985 4 0.96778 0.178624 0.484697
727 4 0.0369539 0.191243 0.500987
231 3 0.0121337 0.192792 0.506672
973 3 0.034662 0.194891 0.496601
923 4 0.0372931 0.217586 0.501255
455 3 0.0436759 0.215173 0.520879
922 4 0.0536386 0.226033 0.496376
726 4 0.053735 0.202904 0.493156
966 3 0.0323521 0.23498 0.517515
748 4 0.0335922 0.239454 0.483356
454 1 0.0558672 0.199142 0.492992
924 3 0.0210028 0.213591 0.514583
972 4 0.0173458 0.204426 0.493474
965 4 0.0156095 0.22706 0.497618
747 4 0.0524231 0.248382 0.501186
749 3 0.00999594 0.232927 0.499529
964 1 0.00203197 0.214421 0.492947
932 2 0.0033545 0.218359 0.500977
453 4 0.0710594 0.187892 0.493435
725 4 0.0711284 0.211807 0.49771
921 4 0.0712486 0.23507 0.489404
724 4 0.0886091 0.220876 0.488609
723 4 0.10731 0.227011 0.498916
920 1 0.0900159 0.243331 0.503379
820 2 0.107392 0.240417 0.48341
722 2 0.127119 0.228571 0.510946
821 4 0.127484 0.237524 0.486403
822 4 0.144773 0.228251 0.499717
823 1 0.158349 0.213131 0.511203
824 4 0.174897 0.202241 0.503769
739 4 0.164134 0.240461 0.512306
740 4 0.179809 0.225729 0.509676
742 3 0.208682 0.195405 0.49291
741 4 0.196005 0.211712 0.511834
693 3 0.230826 0.199976 0.513715
692 4 0.219764 0.216834 0.492409
691 1 0.213752 0.236213 0.50602
493 4 0.341091 0.190639 0.505439
494 1 0.359294 0.199272 0.528841
418 4 0.362328 0.243105 0.500219
168 3 0.430346 0.187561 0.479505
419 4 0.377473 0.228093 0.502168
495 4 0.378486 0.20537 0.488252
1008 3 0.411303 0.201245 0.492599
1007 4 0.430171 0.205266 0.469263
496 4 0.396102 0.214464 0.480866
420 3 0.393577 0.215747 0.494719
497 3 0.414574 0.223841 0.478779
565 4 0.416461 0.223265 0.492553
564 4 0.399936 0.236696 0.486223
154 3 0.432426 0.209914 0.496508
573 4 0.421812 0.244848 0.497946
560 3 0.418131 0.246026 0.497869
566 1 0.433177 0.210212 0.492491
574 3 0.435994 0.232365 0.501316
563 4 0.383475 0.249392 0.505853
153 4 0.438698 0.22744 0.508042
1005 4 0.465996 0.197789 0.491568
1006 4 0.448051 0.203538 0.497801
567 3 0.450627 0.196862 0.499219
1004 4 0.48489 0.200023 0.500674
152 4 0.449114 0.244189 0.51029
657 4 0.473341 0.219153 0.473233
658 3 0.453752 0.219077 0.488955
91 3 0.457137 0.241502 0.494535
656 4 0.494361 0.220506 0.512689
1003 4 0.504693 0.199929 0.498794
1002 2 0.524983 0.201404 0.496408
655 1 0.51369 0.228125 0.48672
654 4 0.529567 0.242253 0.505363
433 1 0.570655 0.198356 0.49713
431 4 0.572167 0.238424 0.507729
432 4 0.575133 0.218442 0.489125
522 4 0.597079 0.242563 0.503347
523 1 0.615286 0.231808 0.524653
524 4 0.63315 0.222403 0.502662
308 3 0.634045 0.228456 0.491243
525 3 0.651612 0.214018 0.509695
307 4 0.65445 0.230398 0.490476
306 1 0.674214 0.234105 0.500103
303 1 0.734617 0.241736 0.498263
304 4 0.71437 0.240242 0.491257
305 4 0.694321 0.23644 0.485142
302 2 0.755035 0.243436 0.507866
9 4 0.914198 0.189804 0.508324
407 2 0.904779 0.192844 0.488267
954 1 0.886349 0.198796 0.498849
953 2 0.899821 0.215539 0.485172
408 4 0.902588 0.213599 0.484932
828 4 0.91944 0.227891 0.515745
827 2 0.921705 0.207457 0.501807
967 2 0.918784 0.229461 0.511641
10 4 0.924232 0.206273 0.476319
409 4 0.898291 0.235405 0.519164
11 1 0.935602 0.225222 0.50424
829 4 0.91982 0.24583 0.500628
15 2 0.938768 0.24046 0.522074
968 4 0.940083 0.221224 0.497863
961 4 0.945151 0.196805 0.509485
12 4 0.947595 0.241442 0.492379
986 4 0.986597 0.193549 0.503605
971 4 0.998491 0.213026 0.52775
987 3 0.998762 0.210858 0.495042
933 4 0.994764 0.236785 0.493201
963 1 0.987802 0.205461 0.482068
970 4 0.979277 0.2197 0.499132
917 3 0.986725 0.229474 0.504837
962 4 0.966067 0.201084 0.500466
969 4 0.95923 0.222117 0.515628
916 4 0.971142 0.241461 0.502376
216 4 0.0142021 0.251124 0.515274
215 1 0.0346793 0.259745 0.495937
214 4 0.0529266 0.270849 0.505912
919 4 0.107824 0.250144 0.494603
746 4 0.0712595 0.258068 0.491289
213 4 0.0712522 0.281641 0.475614
794 4 0.0741625 0.304524 0.509819
745 4 0.0897758 0.267644 0.47273
736 2 0.108311 0.263227 0.492351
744 4 0.108866 0.273191 0.502247
792 2 0.109965 0.285366 0.491402
212 1 0.0850732 0.298937 0.484203
793 4 0.0913706 0.291439 0.514279
849 4 0.111482 0.302562 0.504183
869 2 0.111776 0.307417 0.503627
918 2 0.127333 0.251193 0.484364
738 4 0.146662 0.251053 0.500725
737 4 0.128233 0.259813 0.475237
743 2 0.128914 0.273425 0.479922
848 2 0.130757 0.295639 0.502767
689 1 0.185415 0.261942 0.490422
687 2 0.147495 0.260489 0.506644
688 4 0.165934 0.264372 0.499313
799 2 0.14968 0.282783 0.497111
800 4 0.169435 0.288329 0.514115
801 4 0.186533 0.300274 0.49281
690 1 0.202185 0.251724 0.471361
105 3 0.297037 0.289473 0.523081
104 1 0.313996 0.300718 0.488392
417 1 0.354678 0.262577 0.470154
562 4 0.36774 0.264765 0.491157
416 4 0.355115 0.28389 0.505892
561 2 0.35621 0.281238 0.50322
415 4 0.353774 0.304622 0.500498
103 4 0.33149 0.311988 0.49148
556 4 0.375704 0.304381 0.4995
557 4 0.379479 0.285977 0.508342
559 4 0.403823 0.259227 0.520407
572 1 0.410383 0.261227 0.511876
558 4 0.388757 0.270617 0.493325
571 4 0.40572 0.283582 0.479552
882 3 0.421325 0.268653 0.512958
881 4 0.427182 0.288021 0.480093
570 4 0.399583 0.303161 0.50279
650 4 0.423545 0.309175 0.48697
651 3 0.431317 0.289505 0.51924
880 1 0.434746 0.311146 0.499466
819 3 0.439165 0.255014 0.484705
818 4 0.444613 0.274164 0.49542
151 1 0.4663 0.257702 0.496185
90 4 0.462786 0.261562 0.523951
817 4 0.447802 0.294254 0.501339
150 4 0.484176 0.268738 0.49004
89 4 0.466061 0.281974 0.495212
88 4 0.468736 0.302785 0.50436
816 4 0.448289 0.312426 0.50427
149 1 0.499315 0.282142 0.496152
653 4 0.540597 0.259823 0.485588
652 2 0.554862 0.274715 0.503199
785 2 0.532297 0.272982 0.496283
429 1 0.554534 0.27383 0.49502
148 2 0.519045 0.29192 0.494589
428 2 0.541995 0.29345 0.505842
786 4 0.551073 0.281353 0.493661
430 4 0.562271 0.255939 0.502331
519 2 0.564496 0.295242 0.503323
787 4 0.567576 0.295527 0.509762
521 4 0.584513 0.257473 0.504456
520 4 0.573659 0.274823 0.483965
788 4 0.58704 0.301771 0.519374
789 1 0.607322 0.30559 0.506868
412 4 0.878651 0.295074 0.480254
410 1 0.888524 0.255198 0.500987
686 3 0.881972 0.296708 0.504568
411 4 0.885304 0.275795 0.497726
831 4 0.907127 0.281066 0.525351
830 4 0.91479 0.263896 0.501179
18 4 0.922526 0.296549 0.510678
17 4 0.931091 0.279738 0.526632
16 4 0.937215 0.260952 0.51797
832 4 0.900349 0.299628 0.510629
945 3 0.904487 0.299486 0.512207
19 1 0.906359 0.308099 0.504519
217 3 0.99524 0.250024 0.494669
913 4 0.945804 0.296719 0.500413
13 1 0.961919 0.255156 0.515018
934 4 0.987788 0.256264 0.509953
914 4 0.95327 0.277103 0.490413
935 4 0.976518 0.274366 0.504155
14 3 0.97909 0.26598 0.506216
915 4 0.960605 0.258816 0.474879
936 4 0.968717 0.293314 0.504893
795 4 0.0574271 0.317308 0.492335
796 1 0.0363853 0.32618 0.500089
797 1 0.018652 0.334938 0.49745
850 4 0.0948805 0.313892 0.496874
211 2 0.0921985 0.318093 0.501948
853 1 0.072695 0.36879 0.51677
852 4 0.0737704 0.347366 0.505075
851 4 0.0813104 0.327962 0.517894
870 4 0.1147 0.3258 0.517127
871 1 0.12294 0.344451 0.500928
872 1 0.128319 0.364159 0.509205
802 1 0.201776 0.315488 0.513041
803 1 0.218906 0.327078 0.523017
804 4 0.237869 0.3356 0.503544
805 3 0.256191 0.345102 0.48802
979 1 0.2974 0.354005 0.497752
980 3 0.276669 0.355145 0.494104
978 4 0.317861 0.350206 0.492806
555 4 0.36724 0.323279 0.497488
414 2 0.360625 0.323427 0.514059
102 4 0.345455 0.326413 0.497149
977 4 0.338742 0.348028 0.493671
101 1 0.35959 0.344006 0.507663
554 2 0.359099 0.345683 0.508694
976 4 0.359278 0.344015 0.503377
100 4 0.372359 0.362457 0.4821
547 2 0.377397 0.36029 0.490358
568 2 0.37932 0.33701 0.511409
975 4 0.379448 0.341461 0.497905
569 4 0.390062 0.321097 0.494148
649 4 0.412187 0.324182 0.492063
648 4 0.40222 0.339969 0.49139
974 2 0.398501 0.348135 0.50379
647 4 0.39472 0.356656 0.507959
877 4 0.415755 0.359686 0.500721
878 4 0.426184 0.346044 0.504352
876 2 0.397883 0.370499 0.469528
646 4 0.395113 0.372142 0.488962
879 4 0.433345 0.329886 0.480309
899 1 0.431213 0.367871 0.49433
87 4 0.475732 0.321658 0.50795
815 4 0.455187 0.329702 0.521947
897 2 0.464787 0.340921 0.488472
814 4 0.465818 0.34262 0.496935
898 4 0.447248 0.354243 0.510284
813 2 0.481483 0.356149 0.495107
905 4 0.484813 0.352712 0.512386
86 1 0.488512 0.33696 0.505532
904 2 0.49149 0.334467 0.539104
906 4 0.46892 0.365792 0.504627
386 2 0.496271 0.373983 0.501314
71 2 0.528118 0.313105 0.51196
316 2 0.55085 0.314397 0.482513
85 2 0.50356 0.352745 0.508049
72 1 0.543669 0.328594 0.504938
156 4 0.506218 0.363018 0.480963
127 2 0.53686 0.333711 0.515597
169 2 0.514454 0.33241 0.487873
170 4 0.523972 0.349654 0.484684
155 2 0.525501 0.353311 0.51295
128 4 0.546477 0.351205 0.516326
171 4 0.531375 0.368221 0.480382
73 4 0.562462 0.337248 0.519673
129 4 0.562946 0.361261 0.491764
317 4 0.571753 0.317736 0.508047
318 4 0.590993 0.324496 0.493446
319 4 0.611142 0.329632 0.523965
74 4 0.578456 0.34359 0.494171
75 4 0.596493 0.347117 0.513355
130 4 0.583572 0.365859 0.488562
76 4 0.614703 0.351392 0.504538
131 1 0.603835 0.36987 0.514399
132 4 0.624696 0.371389 0.499021
790 4 0.627912 0.314974 0.526967
322 3 0.670402 0.33133 0.496053
791 3 0.646387 0.329218 0.499797
320 4 0.63174 0.337014 0.479721
321 1 0.652696 0.338051 0.476988
77 3 0.634799 0.348897 0.505705
28 3 0.657545 0.349642 0.490469
27 4 0.677795 0.355034 0.499745
133 3 0.645002 0.368952 0.499091
26 4 0.697756 0.360175 0.488304
25 1 0.717462 0.366602 0.504685
24 1 0.737138 0.373551 0.488734
681 1 0.799754 0.356038 0.493913
680 2 0.789918 0.373711 0.474815
682 1 0.814491 0.342656 0.514011
413 3 0.868101 0.313968 0.502694
685 4 0.86776 0.314232 0.507905
684 4 0.851286 0.325559 0.520783
683 1 0.832395 0.332925 0.500343
137 1 0.875802 0.368611 0.488859
21 3 0.876482 0.335082 0.51648
912 4 0.935938 0.314994 0.482439
833 3 0.890626 0.317585 0.524532
944 4 0.913576 0.317916 0.498874
20 4 0.889994 0.319533 0.512955
138 4 0.888794 0.35236 0.506393
139 4 0.902681 0.337939 0.526577
140 3 0.91291 0.320617 0.504819
943 4 0.92537 0.335975 0.481604
911 2 0.925726 0.332535 0.49676
942 1 0.933436 0.356982 0.506865
937 1 0.967483 0.312699 0.500559
798 3 0.997239 0.338262 0.500351
938 3 0.974575 0.332777 0.506196
861 3 0.0495087 0.392761 0.492462
860 4 0.0309935 0.401618 0.50424
859 1 0.0122586 0.40879 0.491721
854 3 0.0721088 0.388675 0.46154
875 3 0.125156 0.42421 0.515287
873 1 0.130166 0.384255 0.494901
874 1 0.128825 0.404489 0.506971
664 4 0.167255 0.41927 0.52654
665 3 0.147335 0.419268 0.507974
663 1 0.187665 0.419029 0.49869
662 1 0.207797 0.420945 0.494849
661 4 0.228022 0.423444 0.518938
660 1 0.247808 0.427658 0.512656
57 2 0.285862 0.419947 0.502166
58 1 0.303384 0.409546 0.487544
659 2 0.26727 0.432524 0.508636
59 1 0.32363 0.405191 0.499066
60 4 0.344019 0.407243 0.505518
903 3 0.371937 0.425828 0.521414
61 4 0.362463 0.415135 0.512894
99 2 0.378416 0.382422 0.499397
62 4 0.378347 0.428275 0.512595
548 4 0.377353 0.384205 0.499645
900 4 0.415269 0.381641 0.510371
902 4 0.383024 0.406668 0.53785
645 2 0.398339 0.392992 0.512735
901 4 0.398926 0.393951 0.50806
549 1 0.386828 0.402333 0.490243
550 4 0.402873 0.415873 0.484967
910 3 0.415832 0.418988 0.494655
909 4 0.422643 0.402637 0.512056
896 3 0.393801 0.422171 0.475991
551 4 0.418035 0.425199 0.518665
161 3 0.431494 0.435232 0.51986
908 4 0.436381 0.388353 0.520947
157 4 0.489097 0.375367 0.50451
907 4 0.452115 0.376891 0.487962
160 4 0.440413 0.41648 0.490104
158 4 0.471964 0.388168 0.512374
387 1 0.487429 0.392737 0.506561
159 4 0.45505 0.400673 0.492729
388 1 0.474377 0.405355 0.523007
389 4 0.462819 0.422715 0.517774
390 4 0.448184 0.437494 0.489451
172 1 0.54361 0.384872 0.511653
173 4 0.556223 0.401612 0.521387
174 1 0.565396 0.420907 0.529136
23 4 0.75624 0.382111 0.492084
22 2 0.7754 0.390895 0.525909
751 4 0.797234 0.416121 0.481844
750 2 0.798015 0.395495 0.495633
752 1 0.793955 0.436875 0.481274
134 2 0.82093 0.398389 0.504103
136 1 0.859657 0.382215 0.502918
135 1 0.841904 0.392943 0.49789
941 4 0.937328 0.377118 0.479122
624 2 0.916546 0.429617 0.505095
939 2 0.93576 0.417384 0.502046
940 4 0.937226 0.39744 0.498101
858 1 0.993539 0.416415 0.518195
857 1 0.974171 0.422555 0.498373
856 1 0.955524 0.430935 0.507946
927 1 0.234274 0.482028 0.500401
926 4 0.244329 0.465142 0.518428
925 2 0.248468 0.445005 0.487865
590 4 0.248102 0.488204 0.497567
589 2 0.24971 0.467747 0.505669
883 2 0.287836 0.442773 0.500552
771 2 0.268649 0.455182 0.496018
772 4 0.266018 0.475041 0.50386
884 4 0.305257 0.454727 0.512625
773 4 0.269757 0.49528 0.503304
885 1 0.324543 0.46119 0.503281
886 4 0.344426 0.460392 0.498747
887 1 0.364053 0.454962 0.486275
895 4 0.399273 0.438365 0.50529
392 3 0.409276 0.440454 0.48534
552 1 0.43081 0.440348 0.494019
391 4 0.429344 0.443841 0.499438
63 3 0.387424 0.44427 0.493772
888 4 0.38412 0.454939 0.505674
889 3 0.40221 0.461483 0.503599
894 4 0.408737 0.453698 0.517143
637 3 0.417212 0.478186 0.493924
714 3 0.424518 0.456819 0.518077
893 4 0.422761 0.466193 0.517168
636 4 0.401771 0.489612 0.510438
892 4 0.435303 0.481759 0.481487
721 3 0.439162 0.473867 0.50307
553 3 0.446741 0.452502 0.504758
712 4 0.463653 0.457475 0.498633
713 4 0.444411 0.460237 0.521796
720 4 0.45808 0.479418 0.495384
711 1 0.48383 0.460353 0.507564
719 4 0.476724 0.486887 0.511759
718 4 0.494391 0.498476 0.497157
891 1 0.44434 0.499984 0.521053
708 2 0.543343 0.455598 0.497001
710 1 0.503416 0.456607 0.497878
709 1 0.523471 0.457787 0.48406
175 3 0.569115 0.441611 0.477242
314 4 0.566791 0.485996 0.482966
315 3 0.572222 0.464984 0.502378
210 3 0.589823 0.450341 0.502017
209 4 0.582067 0.4687 0.486959
208 1 0.578153 0.487629 0.499087
754 4 0.790055 0.478519 0.512417
753 1 0.792652 0.457744 0.482529
119 3 0.78796 0.495832 0.490799
755 1 0.787108 0.49833 0.488525
630 3 0.809921 0.489553 0.473239
628 1 0.846751 0.472029 0.507599
629 4 0.827845 0.480268 0.498722
627 1 0.864415 0.461702 0.510189
625 1 0.898698 0.439339 0.485912
626 4 0.881207 0.450333 0.508457
855 2 0.93696 0.440223 0.491566
928 4 0.229721 0.501162 0.488069
929 4 0.228838 0.52029 0.510301
930 1 0.220503 0.538764 0.483921
931 3 0.211493 0.556997 0.479176
591 4 0.250468 0.508969 0.487706
592 4 0.251143 0.528863 0.508851
593 4 0.257887 0.548985 0.492996
774 1 0.280961 0.512721 0.484199
775 4 0.296152 0.526073 0.47138
776 1 0.314643 0.535444 0.482179
777 3 0.334215 0.541388 0.515967
633 1 0.371244 0.541505 0.503875
632 1 0.365532 0.5614 0.494931
634 1 0.379383 0.522778 0.493565
635 1 0.388745 0.505015 0.49309
890 2 0.453641 0.518117 0.487636
717 1 0.510532 0.51211 0.475191
716 4 0.527935 0.524619 0.489535
715 2 0.542635 0.541 0.490604
312 4 0.550601 0.524956 0.518071
311 4 0.540961 0.542617 0.52241
141 2 0.529447 0.559395 0.52044
204 2 0.551615 0.562249 0.484528
310 1 0.535766 0.561828 0.509789
313 4 0.560199 0.506703 0.531082
205 4 0.56358 0.54475 0.518162
638 2 0.565616 0.544549 0.514555
206 4 0.572998 0.526569 0.514605
207 1 0.577853 0.507443 0.496479
640 4 0.607299 0.540789 0.502621
639 4 0.586373 0.544734 0.494032
808 4 0.613936 0.562102 0.510646
641 1 0.629354 0.539612 0.494099
734 4 0.668935 0.534242 0.514126
735 3 0.650567 0.539951 0.490713
49 3 0.673776 0.540801 0.505402
642 4 0.64809 0.545994 0.510097
643 4 0.664277 0.555517 0.494261
126 3 0.661094 0.56008 0.480006
48 4 0.686138 0.551972 0.476515
733 1 0.687711 0.534811 0.514693
42 3 0.698005 0.545827 0.498526
731 4 0.726884 0.540788 0.488374
732 4 0.706282 0.539875 0.527142
33 1 0.743491 0.536793 0.521574
32 4 0.741221 0.558596 0.489596
41 4 0.715224 0.560222 0.496996
730 4 0.746741 0.537574 0.51195
35 3 0.766224 0.502431 0.505572
34 4 0.752792 0.516808 0.476224
729 2 0.766876 0.533603 0.494482
117 4 0.768967 0.532339 0.50357
118 4 0.775983 0.513005 0.492433
756 3 0.783191 0.518308 0.503352
6 4 0.79248 0.52818 0.513104
5 4 0.786946 0.545936 0.509395
116 4 0.764234 0.552126 0.505367
7 3 0.804589 0.511445 0.504026
951 4 0.807354 0.554482 0.494249
952 3 0.801222 0.533863 0.502923
847 3 0.82249 0.525677 0.500388
846 1 0.823293 0.546152 0.4904
594 1 0.268589 0.567315 0.506127
595 3 0.2806 0.583231 0.505824
631 2 0.360121 0.581273 0.491893
142 4 0.550411 0.562803 0.504547
309 2 0.537391 0.580671 0.482879
806 2 0.574116 0.565635 0.486587
807 4 0.594372 0.565492 0.519723
143 4 0.570894 0.567058 0.500611
144 1 0.589097 0.578277 0.49473
145 4 0.608583 0.584105 0.493151
487 4 0.618875 0.621521 0.488433
462 3 0.576931 0.622375 0.492593
539 3 0.599499 0.624626 0.487659
644 3 0.683242 0.56294 0.504145
809 4 0.632949 0.563241 0.507406
146 4 0.628859 0.584812 0.491865
486 4 0.634456 0.607724 0.493533
810 4 0.649338 0.571837 0.495679
147 3 0.647925 0.578484 0.505695
485 4 0.649898 0.594342 0.505775
811 1 0.664001 0.585406 0.500233
484 2 0.666731 0.583185 0.513136
378 3 0.670315 0.581328 0.484365
125 4 0.672024 0.576026 0.497542
707 3 0.656544 0.599311 0.470976
377 4 0.670491 0.603699 0.499725
812 3 0.679075 0.601776 0.509105
706 4 0.654568 0.619183 0.498182
376 4 0.679394 0.622251 0.508816
124 4 0.683986 0.586928 0.498216
47 4 0.693475 0.566321 0.484289
123 4 0.692861 0.603285 0.488556
469 3 0.69434 0.584715 0.515036
46 4 0.704313 0.579522 0.499749
468 4 0.71419 0.598524 0.522706
45 1 0.719268 0.593456 0.495475
40 4 0.725777 0.577459 0.50078
39 4 0.736422 0.594879 0.498719
44 1 0.728391 0.610414 0.504651
467 4 0.726845 0.614534 0.487376
122 4 0.70399 0.618721 0.49711
31 4 0.746972 0.575322 0.499713
38 4 0.749647 0.610934 0.486613
4 4 0.787313 0.563852 0.496789
30 4 0.758439 0.590529 0.487232
115 4 0.767567 0.570153 0.513121
114 4 0.780001 0.585152 0.519115
3 1 0.778435 0.584867 0.488462
113 2 0.790413 0.603536 0.487613
949 4 0.798428 0.597788 0.515651
2 4 0.775912 0.606462 0.516723
29 2 0.768043 0.606544 0.502853
950 4 0.80559 0.576807 0.486855
948 4 0.795481 0.618802 0.501968
253 2 0.803765 0.622057 0.463691
1 2 0.781271 0.624687 0.510699
845 4 0.827093 0.56639 0.490692
843 4 0.83395 0.605201 0.501916
844 1 0.834263 0.585213 0.489804
842 1 0.827926 0.624074 0.507582
393 2 0.46567 0.657347 0.50151
394 1 0.485774 0.65741 0.496581
395 4 0.506111 0.655289 0.50298
396 1 0.52598 0.654259 0.495118
397 4 0.547123 0.657257 0.486592
425 4 0.543549 0.68417 0.516227
426 4 0.559863 0.675241 0.511935
490 3 0.564108 0.641408 0.509347
398 4 0.568689 0.653767 0.481398
488 1 0.602067 0.632704 0.498225
489 1 0.583323 0.638433 0.497519
399 3 0.586866 0.643062 0.515908
461 4 0.586265 0.639468 0.47412
460 4 0.592289 0.657419 0.497588
448 3 0.596803 0.662941 0.492991
427 3 0.574358 0.6619 0.49576
538 4 0.609251 0.6427 0.508484
406 3 0.610166 0.644481 0.508826
459 4 0.603573 0.671974 0.501198
447 4 0.581855 0.677361 0.504036
546 3 0.619092 0.665371 0.5107
435 2 0.581348 0.68312 0.52049
458 4 0.61912 0.683511 0.506322
537 4 0.622258 0.659651 0.503418
545 1 0.622618 0.684601 0.509906
405 4 0.631843 0.63988 0.50216
404 4 0.651338 0.640651 0.506308
705 1 0.657358 0.640906 0.498407
403 4 0.670243 0.643906 0.50859
704 4 0.661326 0.663415 0.51038
536 4 0.638269 0.671295 0.499458
703 4 0.673776 0.678683 0.51535
535 4 0.652413 0.684154 0.501927
402 4 0.684282 0.657882 0.501085
43 2 0.736221 0.628822 0.500146
375 4 0.692996 0.6379 0.500959
401 4 0.694888 0.673499 0.486842
466 4 0.738628 0.630844 0.504919
374 4 0.706424 0.65388 0.502862
121 4 0.716188 0.634026 0.500783
120 2 0.726912 0.649932 0.501695
380 4 0.730135 0.653211 0.472488
381 1 0.715813 0.668766 0.493833
373 4 0.716565 0.669896 0.502505
617 2 0.739848 0.668151 0.483014
618 4 0.731754 0.685842 0.479799
372 2 0.725873 0.686834 0.51079
379 2 0.749175 0.647144 0.477854
37 4 0.762838 0.626262 0.506714
267 2 0.758896 0.627044 0.481184
465 4 0.751057 0.645274 0.481126
36 2 0.771738 0.645061 0.506824
464 4 0.765944 0.65672 0.507598
268 1 0.773416 0.643408 0.508239
463 2 0.784744 0.663808 0.509197
269 4 0.788171 0.65953 0.497669
281 2 0.794263 0.642827 0.503523
947 4 0.797538 0.639332 0.498559
218 2 0.7622 0.665266 0.502024
219 4 0.77606 0.678562 0.503304
270 4 0.798859 0.675949 0.519481
946 2 0.80715 0.660737 0.492997
282 4 0.810589 0.657055 0.493178
841 2 0.817045 0.640511 0.502951
254 4 0.81943 0.636159 0.489623
255 4 0.832639 0.652781 0.475613
283 4 0.82187 0.672771 0.499639
256 4 0.844404 0.669996 0.484672
583 4 0.477103 0.725234 0.523322
421 2 0.479603 0.731901 0.491265
582 2 0.493554 0.714239 0.493203
584 4 0.464548 0.740378 0.506422
598 4 0.486766 0.745321 0.50099
422 1 0.495134 0.718668 0.502915
597 4 0.499506 0.729594 0.490823
442 2 0.501989 0.736117 0.488957
424 4 0.529505 0.697902 0.508495
423 4 0.513544 0.710455 0.504686
596 2 0.515581 0.717528 0.494215
444 4 0.536788 0.719165 0.494853
78 2 0.538005 0.720256 0.506155
443 4 0.521754 0.731077 0.451996
79 4 0.550926 0.73666 0.516921
445 4 0.551659 0.705333 0.510168
498 2 0.524532 0.738305 0.524347
673 2 0.547245 0.74073 0.49704
446 1 0.567278 0.691872 0.498998
436 4 0.598672 0.6939 0.495228
437 4 0.614842 0.706733 0.489598
80 1 0.569001 0.747647 0.515098
82 1 0.607726 0.749858 0.503732
438 4 0.628542 0.723109 0.501071
457 4 0.634008 0.695604 0.5
544 1 0.632546 0.699819 0.500731
543 4 0.648 0.71271 0.491725
456 2 0.652183 0.706077 0.491541
542 4 0.665808 0.720993 0.488439
534 4 0.664506 0.698628 0.493374
439 4 0.646087 0.734834 0.500024
533 2 0.673086 0.715968 0.494854
191 4 0.666924 0.74322 0.506461
440 1 0.6637 0.746164 0.501535
541 4 0.685902 0.726814 0.538123
702 4 0.686765 0.695638 0.48768
190 2 0.686091 0.734616 0.481044
83 4 0.629349 0.749768 0.506861
382 4 0.70891 0.690484 0.498583
400 2 0.70355 0.692178 0.483659
383 4 0.704525 0.711543 0.502392
701 2 0.695616 0.713734 0.514777
619 4 0.726808 0.704664 0.502096
620 1 0.725277 0.723894 0.491912
540 2 0.708477 0.732504 0.491918
384 4 0.706803 0.733549 0.505675
238 3 0.697526 0.732979 0.495176
621 1 0.719104 0.73984 0.525663
237 4 0.687903 0.749623 0.48953
220 4 0.786764 0.695276 0.484652
221 1 0.7957 0.713354 0.49555
271 4 0.809604 0.691834 0.504039
222 4 0.810306 0.726198 0.515261
257 1 0.853572 0.688576 0.504825
284 4 0.833467 0.689654 0.502205
272 4 0.820332 0.70721 0.502445
223 4 0.829455 0.730824 0.507122
273 3 0.833125 0.722539 0.494093
285 4 0.842114 0.709217 0.507115
189 3 0.822595 0.742774 0.484999
188 1 0.841973 0.746441 0.503401
224 3 0.845326 0.741497 0.498575
286 4 0.853108 0.726316 0.525358
98 3 0.855957 0.721366 0.508113
258 4 0.864678 0.706431 0.503834
187 4 0.863632 0.746345 0.484778
287 3 0.868115 0.740436 0.495417
97 4 0.875975 0.726947 0.498191
259 3 0.878742 0.720343 0.5009
96 1 0.896037 0.732517 0.502999
95 4 0.910808 0.744647 0.505419
587 1 0.426132 0.786543 0.495116
588 3 0.41413 0.803513 0.486528
602 3 0.43621 0.807791 0.52526
586 4 0.439426 0.77126 0.500825
585 4 0.452037 0.756252 0.503013
599 4 0.474139 0.760951 0.494195
600 4 0.461831 0.776596 0.511987
501 4 0.484109 0.78087 0.498964
601 4 0.449076 0.792154 0.508846
502 4 0.471507 0.797267 0.507913
678 1 0.47724 0.809754 0.495068
677 4 0.493847 0.800708 0.509707
500 4 0.496243 0.765717 0.499011
499 4 0.508782 0.750221 0.490345
674 4 0.531193 0.752608 0.508422
676 4 0.506457 0.786227 0.507819
675 1 0.517804 0.769759 0.512449
81 1 0.588289 0.751926 0.509147
195 1 0.611704 0.805517 0.497727
194 4 0.623471 0.787269 0.476326
84 3 0.650153 0.751493 0.490273
192 4 0.651372 0.756647 0.495462
193 4 0.636996 0.771423 0.479468
235 4 0.658742 0.77828 0.488297
234 4 0.645146 0.793216 0.506312
236 4 0.672606 0.764492 0.485362
473 1 0.667437 0.8018 0.485155
233 4 0.631515 0.808586 0.51132
472 4 0.680346 0.786312 0.506132
441 3 0.6839 0.751474 0.518851
526 2 0.722596 0.751778 0.472271
385 3 0.707282 0.75341 0.492617
470 2 0.699907 0.753411 0.511727
622 4 0.709319 0.756478 0.490695
623 3 0.694371 0.771708 0.502023
471 4 0.693083 0.771804 0.494958
527 4 0.738308 0.767685 0.492741
528 1 0.758261 0.779568 0.509947
529 4 0.778068 0.783387 0.499025
530 1 0.798073 0.781219 0.506787
280 3 0.857453 0.760451 0.491287
531 4 0.817427 0.773277 0.500348
532 3 0.834813 0.76184 0.520932
279 4 0.873866 0.771389 0.491396
186 4 0.883826 0.751387 0.511732
94 4 0.923688 0.759462 0.50488
185 4 0.900274 0.764318 0.491112
184 4 0.913948 0.780464 0.515017
278 1 0.886308 0.787445 0.495056
277 4 0.89983 0.801719 0.477008
183 2 0.930528 0.794168 0.496018
93 1 0.940766 0.770959 0.481551
92 2 0.952713 0.787887 0.506529
246 2 0.947131 0.810264 0.513948
250 4 0.00778131 0.857451 0.506546
251 1 0.0225027 0.871471 0.513279
364 3 0.420967 0.82509 0.504338
363 1 0.431537 0.842669 0.508887
679 3 0.458377 0.812945 0.516635
503 4 0.457347 0.813177 0.514873
362 4 0.443728 0.859318 0.513268
504 3 0.443311 0.829604 0.529139
196 3 0.596723 0.818698 0.501156
483 3 0.592392 0.840996 0.503227
482 1 0.577686 0.855282 0.502548
481 4 0.563333 0.869979 0.46808
70 3 0.609597 0.85541 0.498153
1001 3 0.613756 0.833193 0.522687
232 2 0.617054 0.82278 0.499722
1000 4 0.62625 0.848691 0.508343
475 4 0.639997 0.829996 0.525595
474 4 0.652726 0.81497 0.501115
476 3 0.630707 0.847733 0.511695
999 1 0.636029 0.86634 0.496936
334 4 0.681752 0.872223 0.494293
335 1 0.693342 0.854899 0.52362
336 3 0.703139 0.837469 0.494659
276 1 0.911257 0.818337 0.474121
275 1 0.928217 0.82899 0.49193