ITEM: TIMESTEP
0
ITEM: NUMBER OF ATOMS
1008
ITEM: BOX BOUNDS pp pp pp
-8.4163209853942732e+01 -1.0617901460540153e+00
-8.4163209853942732e+01 -1.0617901460540153e+00
-1.0000000000000000e+00 1.0000000000000000e+00
ITEM: ATOMS id type xs ys zs
331 1 0.163406 0.0250005 0.507101
332 4 0.171257 0.0157481 0.50829
333 1 0.177741 0.00566649 0.493014
330 2 0.154908 0.0336415 0.509046
866 1 0.216959 0.0227626 0.490073
867 1 0.214795 0.0110872 0.469374
865 1 0.218867 0.0346192 0.494642
200 1 0.56123 0.0294768 0.484894
201 1 0.568409 0.0196271 0.492291
202 1 0.576109 0.0102942 0.501148
203 3 0.582864 0.00019338 0.496108
412 1 0.719611 0.0151954 0.512584
411 1 0.716482 0.0269879 0.494853
413 3 0.721217 0.00311184 0.509879
2 1 0.756787 0.0230024 0.51683
1 2 0.744798 0.0250825 0.509077
3 1 0.768392 0.0201189 0.513839
4 1 0.78013 0.017168 0.50212
5 1 0.792018 0.0151054 0.503368
6 1 0.804046 0.0145515 0.511169
7 3 0.815953 0.01372 0.505718
749 3 0.829068 0.0161656 0.505821
748 1 0.838182 0.0240481 0.506111
747 1 0.846281 0.0327593 0.481835
138 1 0.959166 0.00398141 0.502427
137 4 0.964983 0.0143764 0.49838
136 1 0.970722 0.0248172 0.487636
135 1 0.975347 0.0359423 0.506549
660 1 0.00389191 0.0536014 0.507472
661 1 0.0159592 0.0544604 0.485347
662 1 0.0279631 0.0542531 0.482406
663 1 0.0399944 0.0538823 0.491462
664 1 0.0517475 0.0547059 0.522057
665 3 0.0638283 0.0545849 0.481727
546 3 0.0769525 0.0574465 0.513324
545 1 0.0832491 0.0678594 0.486721
863 1 0.219325 0.0588287 0.519128
862 2 0.218959 0.0710521 0.515329
864 1 0.219448 0.0467036 0.502078
216 1 0.438253 0.0610873 0.506438
215 1 0.429628 0.069034 0.506953
217 3 0.447483 0.0536297 0.505596
952 3 0.456124 0.0431723 0.501138
951 1 0.468146 0.044655 0.491252
950 1 0.47992 0.0458895 0.503012
949 4 0.491858 0.0481945 0.492244
948 1 0.503324 0.0516431 0.505196
947 1 0.514575 0.055278 0.506556
199 1 0.55541 0.040123 0.493151
198 4 0.547974 0.049635 0.497987
197 2 0.539772 0.0585501 0.488764
946 2 0.526344 0.0574498 0.524284
309 2 0.532336 0.0697641 0.494496
310 1 0.543948 0.0729883 0.505033
408 1 0.701594 0.0597421 0.513649
407 2 0.695977 0.0704748 0.486732
409 1 0.707235 0.0492932 0.514843
410 1 0.711881 0.0380783 0.500721
746 1 0.854473 0.0416322 0.489762
745 1 0.861329 0.0516216 0.489724
744 1 0.867495 0.0620004 0.505362
743 2 0.873708 0.072483 0.499548
659 2 0.991863 0.0530096 0.510983
134 2 0.979681 0.0471864 0.490609
544 1 0.0879305 0.0785471 0.495117
543 1 0.0910632 0.0905348 0.504258
542 1 0.0930066 0.102231 0.462667
354 1 0.188348 0.109014 0.509057
352 1 0.20393 0.0907894 0.500626
353 1 0.195293 0.0991848 0.4961
351 2 0.21351 0.0833733 0.521307
981 2 0.226986 0.0818012 0.474998
982 1 0.237411 0.0877561 0.477689
983 1 0.246755 0.0952416 0.486085
984 1 0.254798 0.10405 0.486271
211 2 0.395931 0.10336 0.515989
212 1 0.404061 0.0943794 0.506932
214 1 0.420248 0.0766794 0.505682
213 1 0.412018 0.0855274 0.49863
311 1 0.555514 0.0760728 0.510465
312 4 0.567334 0.0781083 0.482622
313 1 0.579276 0.0800895 0.494672
314 1 0.591218 0.0813399 0.511944
489 1 0.627805 0.0860275 0.528231
315 3 0.603453 0.0815363 0.501152
490 3 0.615728 0.0873991 0.494284
973 3 0.604748 0.0949871 0.505746
972 4 0.606662 0.106972 0.494596
486 1 0.663707 0.0828439 0.520213
487 1 0.65194 0.0848685 0.514892
488 1 0.640008 0.0858366 0.507203
484 2 0.688122 0.0814394 0.489604
485 1 0.675964 0.0819694 0.505585
715 2 0.701492 0.0827909 0.506902
716 1 0.707192 0.0931501 0.513647
717 1 0.712261 0.104258 0.505895
905 1 0.882568 0.092528 0.475484
904 2 0.884351 0.080674 0.513274
906 1 0.881073 0.104625 0.498088
541 1 0.095742 0.114167 0.492048
9 1 0.0807787 0.143791 0.529045
540 2 0.0968345 0.126178 0.496436
8 2 0.0916339 0.138706 0.49844
456 2 0.105103 0.136923 0.498733
457 1 0.116303 0.14118 0.522861
458 1 0.127727 0.144634 0.503697
459 1 0.139078 0.147906 0.499774
356 4 0.178491 0.13144 0.493444
357 3 0.174479 0.142787 0.520764
355 1 0.182724 0.12006 0.506408
985 1 0.262115 0.113829 0.478432
986 1 0.267536 0.12441 0.501614
987 3 0.271968 0.135191 0.489969
971 1 0.609507 0.118745 0.490063
970 4 0.613222 0.130265 0.494904
969 1 0.617678 0.141328 0.514939
718 1 0.715838 0.115716 0.485335
719 1 0.718527 0.127127 0.51757
720 1 0.720014 0.139309 0.519234
287 3 0.756279 0.114085 0.482137
286 1 0.758019 0.125869 0.505387
285 1 0.760722 0.137516 0.522243
908 1 0.876161 0.128388 0.502177
907 1 0.878258 0.116386 0.512225
909 1 0.87376 0.14013 0.501848
14 3 0.0230467 0.160446 0.510415
588 3 0.010973 0.166581 0.499025
587 1 0.00130255 0.173589 0.493654
13 1 0.0347101 0.157156 0.48334
10 1 0.0699113 0.148857 0.505911
11 1 0.0586944 0.15288 0.491079
12 1 0.046806 0.155116 0.501798
460 1 0.150706 0.149715 0.474793
461 1 0.162282 0.152752 0.489076
462 3 0.173765 0.156268 0.498795
847 3 0.185731 0.150347 0.517151
846 1 0.1965 0.155014 0.478341
845 1 0.207277 0.160287 0.514028
844 1 0.216979 0.167073 0.498332
843 4 0.228004 0.172358 0.485343
842 1 0.238467 0.178251 0.511718
841 2 0.248853 0.184253 0.490834
65 1 0.27422 0.184535 0.493085
66 1 0.286195 0.184507 0.511715
1002 2 0.380714 0.164916 0.486971
1003 1 0.384661 0.176551 0.514354
160 1 0.509376 0.172281 0.495673
161 3 0.514158 0.161071 0.492419
159 1 0.505537 0.183726 0.483753
968 1 0.621773 0.152534 0.487374
806 2 0.625341 0.176387 0.522073
967 2 0.627541 0.163063 0.487718
463 2 0.638158 0.171554 0.505661
464 1 0.650073 0.170078 0.502152
465 4 0.662038 0.169169 0.51675
190 2 0.635886 0.184824 0.496696
466 1 0.674017 0.167565 0.469785
468 1 0.697772 0.163959 0.514449
467 1 0.68598 0.165712 0.492304
469 3 0.709574 0.161038 0.491995
721 3 0.719025 0.151174 0.51452
284 1 0.764816 0.14877 0.500895
283 1 0.76967 0.159785 0.490566
282 1 0.774692 0.17076 0.518369
281 2 0.779384 0.183297 0.509963
849 1 0.806265 0.180926 0.486965
850 1 0.817377 0.177308 0.486791
852 1 0.84038 0.169882 0.5029
851 1 0.829124 0.174391 0.500057
853 1 0.852141 0.166669 0.500711
910 3 0.871605 0.151966 0.488762
854 3 0.863584 0.162849 0.517818
1001 3 0.876983 0.164304 0.488261
1000 1 0.885943 0.172372 0.498347
999 1 0.895898 0.17918 0.490741
586 1 0.991955 0.180789 0.490427
813 2 0.0302688 0.221996 0.518466
526 2 0.0413322 0.214212 0.502461
527 1 0.0532156 0.216007 0.494423
528 1 0.0647412 0.218674 0.50056
529 1 0.0762748 0.222068 0.506396
688 1 0.251542 0.208739 0.517976
687 2 0.253635 0.196888 0.506832
689 1 0.251731 0.220825 0.487334
64 2 0.262276 0.186515 0.480395
67 1 0.298005 0.186621 0.497088
68 1 0.310027 0.188431 0.495969
69 1 0.321467 0.192241 0.507063
70 3 0.332321 0.197823 0.505043
504 3 0.332153 0.211347 0.498049
1004 1 0.388325 0.188136 0.499079
1005 1 0.392663 0.199319 0.5083
1006 1 0.396561 0.210564 0.516694
157 1 0.499632 0.206839 0.515868
158 4 0.501713 0.195181 0.481523
156 1 0.497347 0.218616 0.51009
812 3 0.569127 0.220427 0.517702
810 1 0.58949 0.20814 0.497796
811 1 0.579757 0.214791 0.48751
809 1 0.599505 0.201481 0.509441
807 1 0.617677 0.185859 0.507992
808 1 0.608918 0.19421 0.501795
191 4 0.642866 0.194514 0.485027
192 1 0.650938 0.203516 0.491931
193 1 0.659436 0.212102 0.514503
194 1 0.669263 0.219077 0.490546
231 3 0.701084 0.220542 0.510616
228 1 0.735095 0.208692 0.494408
229 1 0.724055 0.213752 0.509261
230 1 0.712647 0.217464 0.507638
227 1 0.746263 0.204052 0.505483
225 2 0.770193 0.193992 0.483897
226 1 0.757153 0.198854 0.504462
848 2 0.793206 0.185506 0.486404
414 2 0.784165 0.196171 0.504201
415 1 0.78865 0.208967 0.513926
416 1 0.79194 0.22053 0.489038
998 1 0.905595 0.186268 0.516817
997 1 0.915853 0.192423 0.506206
996 1 0.926519 0.197837 0.501479
995 2 0.936917 0.203438 0.486429
582 2 0.950291 0.204431 0.511617
820 2 0.942922 0.215705 0.498598
583 1 0.960696 0.198526 0.494941
585 1 0.98188 0.18743 0.515147
584 1 0.971359 0.193142 0.480823
814 1 0.0223138 0.231201 0.485268
815 1 0.0139701 0.239778 0.499261
816 1 0.00582742 0.248725 0.489782
530 1 0.0878769 0.225329 0.507283
531 1 0.0994926 0.227306 0.495445
532 3 0.111246 0.229757 0.491405
476 3 0.124788 0.228632 0.494254
475 1 0.136227 0.233423 0.502915
474 1 0.147722 0.236814 0.499091
472 1 0.171055 0.243334 0.484998
473 1 0.159427 0.239846 0.499362
471 1 0.183005 0.245565 0.504575
470 2 0.194658 0.248566 0.497449
690 1 0.252901 0.232577 0.502014
691 4 0.252773 0.244736 0.504636
692 1 0.254064 0.256799 0.508611
501 1 0.336613 0.2471 0.479674
502 1 0.335556 0.235319 0.502537
503 1 0.334192 0.223244 0.486855
500 1 0.337659 0.25907 0.513593
1007 1 0.398675 0.2224 0.4992
616 3 0.401123 0.247784 0.483511
615 1 0.392634 0.256322 0.492474
1008 3 0.401799 0.234198 0.487477
189 3 0.413039 0.241662 0.482452
188 1 0.425249 0.243042 0.494012
187 1 0.437195 0.244366 0.513696
186 1 0.449262 0.244662 0.51261
185 4 0.461187 0.243644 0.493072
184 1 0.473071 0.241949 0.499126
358 2 0.487633 0.252784 0.481566
183 2 0.484893 0.23959 0.502682
155 2 0.495019 0.230573 0.503073
239 2 0.497925 0.243793 0.516916
240 1 0.504816 0.253498 0.502514
195 1 0.679643 0.224691 0.479946
196 3 0.690663 0.229363 0.48884
417 4 0.796359 0.231742 0.499528
418 1 0.802086 0.242378 0.493911
419 1 0.80796 0.252607 0.49792
821 1 0.942353 0.227699 0.489346
822 4 0.942173 0.239661 0.517879
823 1 0.941364 0.251592 0.478994
817 4 0.998354 0.258367 0.520906
328 1 0.237087 0.285572 0.500504
693 3 0.255206 0.26889 0.498355
329 3 0.248022 0.280448 0.531446
327 1 0.226624 0.291248 0.514886
574 3 0.261507 0.281131 0.503434
573 1 0.272823 0.285332 0.512485
572 1 0.284712 0.287485 0.507043
571 4 0.296424 0.290093 0.499306
570 1 0.308265 0.292027 0.502352
569 1 0.320315 0.293708 0.48679
568 2 0.33212 0.295095 0.505099
499 4 0.338917 0.271023 0.513207
498 2 0.338333 0.283037 0.510959
612 4 0.364858 0.279748 0.478458
611 1 0.355556 0.287419 0.492232
610 2 0.345641 0.294349 0.488222
613 1 0.373969 0.271826 0.502196
614 1 0.383294 0.263825 0.503584
361 4 0.477821 0.287293 0.503473
360 1 0.479757 0.275521 0.502587
241 1 0.511239 0.263602 0.487656
359 4 0.482693 0.263835 0.508736
242 1 0.517036 0.273912 0.505218
243 1 0.523535 0.283958 0.487654
244 1 0.528841 0.294987 0.499867
154 3 0.80147 0.268554 0.51496
420 3 0.813867 0.26319 0.500102
153 4 0.811906 0.274944 0.497183
966 3 0.812348 0.276577 0.500397
965 4 0.810504 0.288498 0.504241
152 4 0.821957 0.281635 0.507873
151 1 0.832668 0.287321 0.511311
150 1 0.843464 0.292445 0.507058
824 1 0.939029 0.263412 0.488055
825 1 0.935558 0.274829 0.497669
826 3 0.930466 0.285799 0.504185
818 1 0.992742 0.268754 0.510281
819 3 0.985823 0.278486 0.496138
939 2 0.00867107 0.3085 0.509859
99 2 0.020848 0.302594 0.509216
100 1 0.0324513 0.305852 0.487292
101 4 0.0437676 0.309535 0.499818
102 1 0.0554903 0.312355 0.515804
103 1 0.0670709 0.316005 0.526425
104 1 0.0786261 0.320336 0.508108
105 3 0.0893257 0.325538 0.501917
763 3 0.101131 0.332337 0.492703
760 1 0.133752 0.317505 0.497952
761 1 0.122337 0.321176 0.51154
762 1 0.111463 0.326114 0.507867
759 1 0.145094 0.313253 0.492398
323 2 0.181757 0.308493 0.500891
758 1 0.156625 0.310628 0.480373
757 2 0.168279 0.307832 0.499107
326 1 0.21591 0.297081 0.510674
325 1 0.204914 0.301952 0.499264
324 1 0.193402 0.305409 0.518478
911 2 0.339569 0.306453 0.489268
912 1 0.342718 0.318126 0.493355
913 1 0.345466 0.329844 0.495841
637 3 0.40065 0.328696 0.521338
363 1 0.474608 0.311241 0.494908
364 3 0.472796 0.323049 0.504626
362 4 0.475549 0.299036 0.491624
245 3 0.533748 0.305859 0.488546
28 3 0.538627 0.318499 0.490838
27 1 0.538516 0.33057 0.510988
962 1 0.810328 0.324737 0.497914
964 4 0.811201 0.300378 0.519022
963 1 0.810693 0.312593 0.502474
787 1 0.851023 0.324764 0.466765
786 4 0.851688 0.312768 0.507146
785 2 0.851338 0.300647 0.496812
149 4 0.853393 0.299424 0.521637
45 1 0.87521 0.30207 0.497417
43 2 0.854066 0.313851 0.490985
148 2 0.864161 0.304734 0.506565
44 4 0.86417 0.307195 0.481218
46 1 0.886895 0.29922 0.50249
48 1 0.911053 0.297337 0.484034
49 3 0.923397 0.297341 0.502238
47 1 0.898874 0.298051 0.500061
944 4 0.948907 0.298602 0.489759
945 3 0.936988 0.297485 0.516649
182 3 0.930329 0.309104 0.496007
181 1 0.93495 0.320297 0.513939
180 1 0.937803 0.331883 0.499389
943 1 0.96101 0.299116 0.503238
940 1 0.99657 0.306482 0.506879
942 1 0.973049 0.300733 0.486004
941 1 0.984933 0.303489 0.489952
294 3 0.0156751 0.367351 0.480362
293 1 0.00379233 0.369614 0.495815
81 1 0.0601282 0.360629 0.519775
80 1 0.051728 0.369679 0.510948
82 1 0.0689318 0.352484 0.503334
83 4 0.0792223 0.345716 0.49812
84 3 0.0894204 0.339137 0.494169
993 1 0.102082 0.357857 0.494151
994 3 0.101232 0.345814 0.504529
992 1 0.103316 0.3696 0.512593
915 1 0.348219 0.353996 0.495445
914 1 0.346957 0.341904 0.489333
916 1 0.349402 0.366178 0.506629
636 1 0.40224 0.340462 0.519919
635 1 0.403823 0.352436 0.495636
634 1 0.405958 0.364268 0.49924
26 1 0.539534 0.342405 0.489858
25 1 0.540132 0.354541 0.507105
24 1 0.540636 0.366618 0.506453
624 2 0.661289 0.366942 0.492289
961 1 0.809881 0.336722 0.484007
960 2 0.808593 0.348679 0.497331
253 2 0.807483 0.362123 0.489111
254 1 0.796312 0.367501 0.499098
788 1 0.851847 0.33682 0.501306
789 1 0.852036 0.349003 0.526407
790 4 0.852176 0.361041 0.503015
266 3 0.865746 0.36963 0.503747
179 1 0.938818 0.34382 0.512198
178 1 0.939537 0.355708 0.497511
177 4 0.9392 0.367747 0.481636
78 2 0.034414 0.386215 0.536463
79 1 0.0430849 0.377987 0.504206
991 1 0.104418 0.381388 0.51362
990 1 0.105243 0.393429 0.47781
989 1 0.104981 0.405477 0.495503
805 3 0.165655 0.372135 0.506417
804 1 0.169955 0.383034 0.481191
803 1 0.174081 0.394303 0.506229
802 1 0.178691 0.405471 0.46786
917 3 0.35118 0.378109 0.499923
633 1 0.407955 0.376191 0.506903
632 1 0.409985 0.388102 0.499634
631 2 0.412123 0.399818 0.508468
23 1 0.539831 0.37856 0.52007
22 2 0.538644 0.390568 0.497141
876 2 0.53811 0.404106 0.491789
625 1 0.672331 0.371709 0.485983
626 1 0.683614 0.376203 0.488443
627 1 0.694942 0.380378 0.504613
628 1 0.7061 0.385249 0.502135
629 1 0.717757 0.388492 0.494551
630 3 0.728753 0.393212 0.505257
175 3 0.736087 0.40449 0.497227
256 1 0.774143 0.376572 0.521378
259 3 0.742137 0.392407 0.498387
257 1 0.763172 0.381242 0.508652
258 1 0.752364 0.386138 0.499292
255 1 0.785252 0.372029 0.466977
791 3 0.852721 0.37338 0.490655
265 1 0.877268 0.372114 0.506469
264 1 0.888743 0.375021 0.508132
262 1 0.91187 0.382038 0.48106
263 1 0.900193 0.378596 0.488992
261 1 0.923252 0.38624 0.504191
260 2 0.934275 0.391555 0.503591
176 2 0.940082 0.379476 0.502381
288 2 0.947779 0.390444 0.481459
680 2 0.941979 0.402667 0.50864
289 1 0.959198 0.386326 0.515337
290 1 0.97024 0.38197 0.513682
292 1 0.992335 0.373279 0.488854
291 4 0.981481 0.377957 0.522392
988 2 0.105579 0.417562 0.502987
801 1 0.184135 0.416418 0.495236
898 4 0.175314 0.440489 0.491618
899 1 0.163651 0.443187 0.532223
800 4 0.190979 0.426401 0.505404
799 2 0.199657 0.434755 0.503978
736 2 0.210262 0.443024 0.503058
897 2 0.187268 0.439908 0.498616
737 1 0.222293 0.442905 0.507272
738 1 0.234246 0.443767 0.516246
694 2 0.412006 0.413339 0.488849
695 1 0.421742 0.420518 0.499034
696 1 0.430295 0.428914 0.495938
697 1 0.438502 0.43792 0.5019
877 1 0.53585 0.41592 0.522093
878 1 0.533988 0.427659 0.502291
879 4 0.531108 0.439116 0.482839
174 1 0.737567 0.416415 0.493803
173 1 0.739793 0.428133 0.511795
172 1 0.742986 0.439877 0.504552
681 1 0.941315 0.41469 0.501189
682 1 0.940744 0.426539 0.512
683 1 0.938414 0.438327 0.502797
132 1 0.102619 0.478581 0.497437
133 3 0.108945 0.468687 0.497938
902 1 0.129178 0.454245 0.498722
903 3 0.117427 0.458158 0.486869
901 1 0.140681 0.450071 0.503877
900 1 0.152195 0.446029 0.497952
792 2 0.197869 0.448166 0.504217
794 1 0.18934 0.470573 0.531579
793 1 0.193341 0.459375 0.497609
739 1 0.245807 0.446683 0.503427
740 4 0.257252 0.450521 0.52168
741 1 0.268074 0.456195 0.508757
742 3 0.277704 0.463439 0.499796
455 3 0.281147 0.476548 0.514348
441 3 0.29061 0.466836 0.48475
440 1 0.302595 0.465585 0.510127
439 4 0.31446 0.464585 0.501378
438 1 0.32644 0.462208 0.47447
437 1 0.338371 0.460786 0.500281
436 1 0.350516 0.460121 0.504842
435 2 0.362784 0.461365 0.502304
246 2 0.374506 0.468267 0.50908
247 1 0.378774 0.479496 0.511622
698 1 0.446176 0.447346 0.494492
699 1 0.454011 0.456582 0.493662
700 3 0.462409 0.465131 0.516175
882 3 0.520073 0.47345 0.505106
880 1 0.527366 0.450749 0.492822
881 1 0.524015 0.462076 0.495332
645 2 0.591647 0.478553 0.504139
280 3 0.673731 0.481227 0.498345
171 1 0.745443 0.451537 0.48018
170 1 0.748023 0.463109 0.517796
169 2 0.752199 0.474625 0.503911
686 3 0.936829 0.474276 0.485863
685 1 0.937431 0.462544 0.531015
684 1 0.937405 0.450541 0.499088
128 1 0.0705081 0.514984 0.490521
130 1 0.0878168 0.497629 0.48154
131 1 0.0956362 0.488446 0.506724
129 1 0.0792034 0.506259 0.505213
797 1 0.179655 0.505378 0.467761
798 3 0.176977 0.516942 0.491511
796 1 0.18266 0.493785 0.494102
795 1 0.185977 0.482143 0.506732
454 1 0.278577 0.488396 0.496371
452 1 0.272658 0.511799 0.490385
453 1 0.275437 0.500048 0.511804
248 1 0.384185 0.490449 0.482965
249 4 0.388731 0.501397 0.50813
250 1 0.392314 0.51284 0.485438
578 1 0.506923 0.51649 0.501986
579 1 0.512624 0.505875 0.49655
581 3 0.525596 0.485736 0.521303
580 1 0.519112 0.495633 0.506134
379 2 0.578657 0.48292 0.480882
381 1 0.573601 0.506269 0.490357
380 4 0.576445 0.494875 0.480819
382 1 0.571469 0.518176 0.485181
646 1 0.603223 0.481882 0.510425
647 1 0.61503 0.484301 0.482598
648 1 0.627047 0.485001 0.502171
649 4 0.638799 0.487886 0.518555
650 1 0.650484 0.489132 0.498983
651 3 0.66265 0.488932 0.495004
279 1 0.685562 0.483392 0.486616
278 1 0.697614 0.484758 0.490587
276 1 0.721539 0.48496 0.527557
277 1 0.709538 0.484981 0.494766
275 4 0.733436 0.485693 0.491082
17 1 0.738856 0.517725 0.497079
274 2 0.74582 0.486607 0.521255
113 2 0.759373 0.486042 0.489479
114 1 0.771476 0.48653 0.501742
16 1 0.745663 0.507901 0.48751
15 2 0.752913 0.497882 0.484198
115 1 0.783542 0.487831 0.505848
116 1 0.795384 0.489424 0.514649
117 1 0.807382 0.490892 0.503916
118 1 0.819286 0.493239 0.516209
119 3 0.83138 0.494346 0.492618
56 3 0.926758 0.483092 0.530753
55 1 0.928709 0.494787 0.486426
54 1 0.930457 0.506823 0.51018
127 2 0.0633129 0.524961 0.506584
144 1 0.148785 0.555154 0.51564
147 3 0.165066 0.523144 0.506576
146 1 0.15927 0.533712 0.51343
145 1 0.15324 0.544019 0.507748
238 3 0.176333 0.53051 0.504898
237 4 0.187053 0.535923 0.503029
236 1 0.198057 0.540347 0.486997
235 1 0.20957 0.543242 0.491771
234 1 0.221314 0.545515 0.513435
233 1 0.233369 0.547242 0.501394
232 2 0.245151 0.548266 0.496087
449 2 0.258278 0.545006 0.51354
451 1 0.269006 0.523531 0.499302
450 1 0.264014 0.534313 0.496351
750 2 0.326129 0.520164 0.494348
751 1 0.337373 0.524889 0.526043
753 1 0.359181 0.535324 0.503294
752 1 0.348253 0.53003 0.493514
754 1 0.370081 0.539595 0.505563
251 4 0.394705 0.524725 0.50854
252 3 0.396842 0.536383 0.485084
755 1 0.381025 0.544491 0.484223
756 3 0.392363 0.549253 0.504967
539 3 0.405618 0.546558 0.509247
537 1 0.428674 0.540408 0.482844
538 1 0.417035 0.54291 0.492598
536 1 0.440903 0.539987 0.503687
535 1 0.453026 0.541087 0.500962
534 1 0.464751 0.54295 0.501932
533 2 0.47668 0.546239 0.490262
577 1 0.501315 0.527133 0.505946
576 4 0.495949 0.537741 0.522273
575 2 0.490011 0.548313 0.502739
383 1 0.568451 0.529877 0.523829
384 1 0.566258 0.541573 0.482015
385 3 0.563418 0.553286 0.488306
21 3 0.707737 0.55455 0.497899
20 1 0.715822 0.54578 0.478877
19 1 0.723798 0.536717 0.507535
18 1 0.73131 0.527174 0.499418
53 4 0.932391 0.518594 0.505986
52 1 0.933309 0.530506 0.492441
51 1 0.935525 0.542427 0.498
50 2 0.938503 0.554129 0.497725
141 2 0.1362 0.588796 0.49496
142 1 0.141286 0.57791 0.491559
143 1 0.145189 0.566634 0.520957
267 2 0.254814 0.557912 0.490909
268 1 0.260446 0.56849 0.521639
269 1 0.265912 0.579413 0.5032
270 1 0.269446 0.591002 0.476774
483 3 0.401168 0.559448 0.494808
482 1 0.400245 0.571478 0.509625
481 1 0.398061 0.583324 0.514453
393 2 0.481542 0.558812 0.487079
394 1 0.493384 0.561815 0.506793
395 1 0.505503 0.564279 0.495486
396 1 0.517459 0.565817 0.496001
397 1 0.529434 0.565794 0.534722
399 3 0.552641 0.561415 0.492313
398 1 0.541167 0.564507 0.487035
644 3 0.565082 0.566771 0.491572
643 1 0.573809 0.574806 0.489885
642 1 0.583103 0.582635 0.512789
641 1 0.593014 0.589548 0.485357
619 1 0.655413 0.58469 0.496422
620 1 0.665097 0.577351 0.49625
623 3 0.69444 0.556852 0.508631
622 1 0.68416 0.562806 0.50515
621 1 0.674471 0.569955 0.483274
31 1 0.920524 0.585575 0.517745
30 1 0.923807 0.573929 0.489257
29 2 0.927979 0.562721 0.509763
320 1 0.0225328 0.618782 0.505679
319 1 0.0151459 0.628327 0.492624
321 1 0.0302931 0.609549 0.494377
322 3 0.0386371 0.60082 0.501224
706 1 0.0637567 0.597832 0.499655
707 3 0.0519693 0.598749 0.502142
705 1 0.0755328 0.595836 0.506674
703 1 0.0993949 0.594383 0.475628
704 1 0.0873049 0.59425 0.487865
702 1 0.111468 0.594166 0.476074
701 2 0.123373 0.593057 0.494786
589 2 0.133425 0.60202 0.49413
590 1 0.140298 0.612283 0.50796
591 1 0.148345 0.621391 0.488561
855 2 0.256949 0.62677 0.506344
271 1 0.273381 0.602224 0.513868
272 4 0.276506 0.613791 0.510271
273 3 0.279732 0.625334 0.510743
497 3 0.293266 0.624984 0.506513
496 1 0.30489 0.622619 0.496723
495 1 0.316969 0.621767 0.506984
494 1 0.329092 0.621188 0.511353
493 4 0.340783 0.622449 0.521619
492 1 0.352664 0.624628 0.496089
491 2 0.364395 0.628442 0.490074
480 1 0.394915 0.595158 0.513292
479 1 0.390638 0.606483 0.500296
478 1 0.385389 0.617434 0.500242
477 2 0.37792 0.626862 0.500271
640 1 0.603213 0.59575 0.504059
639 1 0.613822 0.600991 0.494252
638 2 0.625191 0.605654 0.48589
618 1 0.646623 0.592729 0.511989
617 2 0.637675 0.600388 0.498113
953 2 0.635993 0.61377 0.518627
954 1 0.639055 0.62552 0.48357
563 1 0.694632 0.624855 0.481566
562 1 0.697359 0.612916 0.506997
561 2 0.699425 0.601011 0.498412
32 1 0.918694 0.597601 0.511623
33 1 0.916658 0.609481 0.521798
34 1 0.915473 0.621348 0.49904
318 1 0.00922399 0.638616 0.501922
317 1 0.00416393 0.649189 0.50992
592 1 0.155901 0.630933 0.497637
593 1 0.163812 0.640209 0.492156
594 1 0.171085 0.649919 0.488349
595 3 0.178884 0.659232 0.498231
861 3 0.19227 0.659628 0.506189
860 1 0.203761 0.655497 0.505556
859 1 0.214257 0.649721 0.490506
856 1 0.246052 0.632568 0.491031
857 4 0.235728 0.63877 0.50522
858 1 0.225089 0.644503 0.493498
726 1 0.276404 0.658259 0.500158
727 1 0.281325 0.647206 0.502341
728 3 0.286982 0.636839 0.511561
766 1 0.371095 0.663328 0.509933
764 2 0.37257 0.639365 0.516319
765 1 0.37268 0.651306 0.510875
955 1 0.642746 0.637012 0.502036
956 1 0.647456 0.648161 0.493532
957 1 0.653237 0.658801 0.515974
565 1 0.686886 0.647353 0.49204
564 1 0.69065 0.63606 0.506316
566 4 0.683867 0.659262 0.506351
348 1 0.887214 0.657731 0.514368
349 1 0.895852 0.649394 0.495675
35 3 0.915582 0.633347 0.504461
350 3 0.905685 0.642571 0.493863
714 3 0.918642 0.646514 0.497677
713 1 0.929365 0.652014 0.499083
712 1 0.940138 0.657257 0.514508
711 1 0.951463 0.661332 0.499417
710 1 0.96347 0.663655 0.499339
316 2 0.998647 0.659828 0.483098
709 1 0.975205 0.665591 0.518235
829 1 0.0163813 0.690399 0.49018
828 1 0.00762941 0.682203 0.498156
830 4 0.0247366 0.698801 0.478297
656 1 0.175585 0.693345 0.497321
657 1 0.180348 0.682246 0.4904
658 3 0.184929 0.671129 0.500107
889 3 0.198528 0.671528 0.517229
888 4 0.20803 0.679021 0.511733
887 1 0.217748 0.685869 0.500104
886 1 0.22707 0.693338 0.50726
885 1 0.236569 0.700545 0.498179
725 1 0.273003 0.669741 0.489887
724 1 0.270505 0.681461 0.498373
723 4 0.266611 0.692923 0.507125
769 1 0.358854 0.697511 0.520441
768 1 0.363902 0.686384 0.482687
767 1 0.367566 0.674863 0.486764
735 3 0.419321 0.690468 0.509582
734 1 0.418033 0.702541 0.509263
672 3 0.429961 0.682022 0.491335
671 1 0.441934 0.679465 0.514441
670 1 0.45388 0.677954 0.49266
669 1 0.465766 0.677824 0.503306
668 1 0.477559 0.679998 0.504544
667 1 0.489184 0.68317 0.484167
666 2 0.500761 0.686471 0.489574
547 2 0.505357 0.699308 0.481879
780 1 0.620576 0.701928 0.512519
779 1 0.608684 0.702694 0.476817
958 1 0.660401 0.668283 0.491505
781 4 0.632386 0.699833 0.515464
782 1 0.644374 0.697363 0.509195
783 4 0.655975 0.694005 0.492317
784 3 0.667696 0.69009 0.513856
518 3 0.678888 0.697925 0.50764
959 3 0.668823 0.676677 0.496106
567 3 0.681056 0.670886 0.486805
875 3 0.680025 0.684416 0.492516
874 1 0.691551 0.680304 0.50112
873 1 0.703081 0.677754 0.494589
870 1 0.73788 0.668135 0.497268
871 1 0.726137 0.670274 0.498319
872 1 0.714472 0.673269 0.493474
869 2 0.749871 0.667399 0.484534
345 1 0.865795 0.686312 0.502972
347 1 0.879408 0.666733 0.506634
346 1 0.872953 0.676526 0.496825
344 2 0.859679 0.696539 0.488225
708 2 0.987151 0.667178 0.499834
827 2 0.999222 0.673188 0.497622
831 1 0.033693 0.706484 0.50877
832 1 0.043185 0.713976 0.485392
833 3 0.0532629 0.720566 0.505726
777 3 0.0667793 0.72025 0.505987
776 1 0.0784905 0.72307 0.498231
775 1 0.090076 0.724895 0.481411
774 1 0.101938 0.727273 0.49011
773 1 0.113485 0.729794 0.503872
772 1 0.124929 0.732077 0.488294
771 2 0.136778 0.734232 0.503587
655 1 0.171078 0.704758 0.497653
652 2 0.150281 0.73425 0.506767
654 1 0.164956 0.715069 0.502546
653 1 0.157588 0.724673 0.480123
884 1 0.246216 0.707997 0.496353
883 2 0.255527 0.716007 0.478822
722 2 0.262434 0.704339 0.507028
204 2 0.269043 0.716267 0.484768
205 1 0.281067 0.715214 0.478322
206 1 0.293053 0.715014 0.482258
207 1 0.30488 0.714537 0.496322
208 1 0.316974 0.713963 0.501198
209 1 0.329074 0.714257 0.516091
770 3 0.353792 0.708364 0.508242
210 3 0.34124 0.713202 0.497838
931 3 0.351678 0.721726 0.472393
930 1 0.359691 0.730595 0.48711
929 1 0.368682 0.738962 0.479267
733 1 0.418034 0.714621 0.496488
732 1 0.418091 0.726558 0.495662
731 1 0.41999 0.738328 0.483627
549 1 0.507825 0.723618 0.510579
548 1 0.506672 0.711449 0.500664
550 1 0.507926 0.735552 0.520019
778 2 0.596636 0.703898 0.487736
515 4 0.66893 0.732817 0.499434
516 1 0.671864 0.721101 0.522136
517 1 0.67551 0.70945 0.501241
224 3 0.00205908 0.74938 0.508876
223 1 0.0129191 0.754898 0.518892
222 4 0.0238533 0.75949 0.506855
221 1 0.0344232 0.76536 0.50916
220 1 0.0441183 0.772525 0.48629
92 2 0.143335 0.745899 0.504474
93 1 0.146295 0.757638 0.488137
94 1 0.149335 0.769213 0.487164
928 1 0.378066 0.74643 0.527619
927 1 0.388585 0.752346 0.492394
926 4 0.399823 0.757117 0.498485
730 1 0.422019 0.750094 0.527567
925 2 0.410927 0.762183 0.500149
729 2 0.424469 0.761813 0.489855
554 2 0.418093 0.773627 0.489527
372 2 0.431582 0.773209 0.484026
373 1 0.443391 0.775722 0.48307
374 4 0.455026 0.77746 0.482769
552 1 0.50945 0.759565 0.503801
551 1 0.508228 0.747716 0.510524
553 3 0.511518 0.771414 0.486965
513 1 0.667589 0.75692 0.496379
514 4 0.667783 0.744858 0.511806
512 2 0.669271 0.768844 0.494195
448 3 0.889207 0.774381 0.505421
219 1 0.0535404 0.780082 0.50042
218 2 0.0640125 0.786184 0.495531
674 1 0.0738989 0.806399 0.489484
673 2 0.0748063 0.79434 0.49025
95 4 0.152015 0.780727 0.52305
96 4 0.154665 0.79245 0.495043
97 1 0.15838 0.803883 0.515736
421 2 0.286045 0.805487 0.486851
422 1 0.297916 0.807607 0.521229
423 1 0.309672 0.809995 0.509349
424 1 0.32135 0.811958 0.490879
558 1 0.386206 0.809502 0.505929
557 4 0.39317 0.799779 0.491277
556 1 0.400732 0.790498 0.505
555 1 0.409127 0.781877 0.50201
375 1 0.46702 0.778546 0.507586
376 4 0.478678 0.779667 0.484239
377 4 0.490747 0.780543 0.519807
378 3 0.502918 0.781843 0.508319
840 3 0.516296 0.784111 0.487157
839 1 0.516888 0.796167 0.484839
838 1 0.519135 0.808206 0.498947
387 1 0.658752 0.791599 0.493478
388 1 0.652842 0.802241 0.497546
389 1 0.646865 0.812789 0.491708
386 2 0.665996 0.781921 0.483165
596 2 0.679001 0.778225 0.500757
597 1 0.690853 0.780998 0.512956
598 1 0.702257 0.78466 0.50456
599 1 0.713263 0.789785 0.496889
600 1 0.72402 0.795151 0.503935
601 1 0.734825 0.800339 0.508507
602 3 0.744858 0.806806 0.490121
444 1 0.85331 0.805831 0.484665
445 1 0.861982 0.797641 0.489395
447 1 0.880028 0.782099 0.507681
446 1 0.871245 0.790075 0.505032
677 1 0.0698166 0.842251 0.46807
676 1 0.0705505 0.830313 0.481882
675 1 0.0726124 0.8184 0.505666
98 3 0.161496 0.815559 0.496619
307 1 0.15385 0.839554 0.499576
308 3 0.155311 0.827629 0.505549
306 1 0.153381 0.851592 0.500691
425 1 0.33278 0.815623 0.507383
426 1 0.344114 0.819756 0.481484
427 3 0.355587 0.82387 0.489255
609 3 0.360642 0.836489 0.509885
608 1 0.363822 0.848205 0.507219
560 3 0.368932 0.825691 0.49695
559 1 0.378099 0.818003 0.495259
837 1 0.522263 0.819731 0.494569
836 1 0.527236 0.830916 0.493836
835 1 0.531358 0.842182 0.492804
392 3 0.632123 0.845717 0.502149
391 1 0.637038 0.834799 0.500586
390 1 0.641748 0.823955 0.516882
895 4 0.732709 0.828351 0.510843
894 1 0.723871 0.836664 0.505041
893 4 0.715713 0.845335 0.503475
896 3 0.741015 0.819825 0.499543
511 3 0.754156 0.816565 0.522057
510 1 0.765863 0.818841 0.492061
509 1 0.777393 0.821886 0.495453
508 1 0.789141 0.823491 0.504463
507 1 0.801096 0.82628 0.521353
506 1 0.812952 0.827441 0.518721
505 2 0.824977 0.827476 0.512872
443 1 0.845879 0.815343 0.508149
442 2 0.838143 0.824446 0.511962
918 2 0.847267 0.834288 0.491419
71 2 0.834219 0.837313 0.492386
72 1 0.838436 0.848674 0.482647
919 4 0.859187 0.832424 0.484003
921 1 0.883294 0.831185 0.487669
920 4 0.871179 0.831523 0.511484
922 1 0.895292 0.831537 0.50515
924 3 0.919205 0.831621 0.504897
923 1 0.907428 0.832072 0.48959
301 3 0.92947 0.840436 0.512979
300 1 0.937662 0.849364 0.520468
166 1 0.0346872 0.882577 0.513865
165 1 0.0229449 0.885228 0.498588
678 1 0.0681053 0.854178 0.487914
167 1 0.0465464 0.879758 0.521816
679 3 0.0670928 0.866075 0.507469
168 3 0.0580139 0.876151 0.494324
938 3 0.0712228 0.879046 0.513763
937 1 0.0811729 0.885962 0.49402
303 1 0.148734 0.887618 0.491547
304 1 0.149921 0.875561 0.518014
305 1 0.152051 0.863576 0.479818
607 4 0.367477 0.859346 0.504757
605 1 0.370287 0.883467 0.505256
606 1 0.36968 0.871405 0.489685
338 1 0.531871 0.876533 0.491193
834 2 0.536749 0.853087 0.503237
400 2 0.549246 0.858021 0.48438
337 2 0.538802 0.866645 0.496034
339 1 0.525586 0.886641 0.496075
401 1 0.561162 0.856974 0.496623