ITEM: TIMESTEP
0
ITEM: NUMBER OF ATOMS
1008
ITEM: BOX BOUNDS pp pp pp
-7.7994171576760237e+01 -6.4008284232299033e+00
-7.7994171576760237e+01 -6.4008284232299033e+00
-1.0000000000000000e+00 1.0000000000000000e+00
ITEM: ATOMS id type xs ys zs
910 3 0.0672273 0.0411181 0.523452
909 4 0.0748882 0.0297513 0.482968
908 1 0.0828751 0.0182386 0.524743
907 1 0.0920386 0.00782009 0.509293
951 4 0.207232 0.0102005 0.491247
950 1 0.203411 0.023738 0.516513
949 1 0.203276 0.0379424 0.521483
12 1 0.249153 0.0126361 0.508376
11 1 0.254935 0.0251935 0.503827
13 4 0.240032 0.00218615 0.498003
10 4 0.256732 0.0392992 0.494347
692 1 0.421731 0.00771717 0.507689
691 1 0.431536 0.017695 0.466924
690 1 0.442094 0.0267308 0.491601
689 1 0.453243 0.0345659 0.50255
688 1 0.464496 0.0426261 0.504755
709 1 0.500994 0.0306833 0.507819
710 1 0.509274 0.0193592 0.506241
711 1 0.51789 0.00833918 0.511867
373 1 0.595596 0.00609343 0.499858
372 2 0.608091 0.0127027 0.509871
324 1 0.618771 0.0371157 0.516404
323 2 0.619643 0.0231755 0.49522
505 2 0.623059 0.00786669 0.505619
506 1 0.635928 0.00272551 0.475228
405 1 0.725178 0.00851544 0.490564
404 1 0.732802 0.0203541 0.512841
403 1 0.740426 0.031887 0.478554
847 3 0.815271 0.0369567 0.485935
931 3 0.0731765 0.0554995 0.482158
440 1 0.0525414 0.0663671 0.487713
441 3 0.0575656 0.0533382 0.494911
439 1 0.0508576 0.0801101 0.500858
930 4 0.0826496 0.0656928 0.521025
929 1 0.0894484 0.0776592 0.475795
948 1 0.207545 0.0512556 0.486645
947 1 0.21634 0.062355 0.474137
946 2 0.229138 0.0694339 0.491707
9 1 0.253622 0.0528591 0.516337
932 2 0.240519 0.0801972 0.508542
8 2 0.244939 0.0649667 0.525359
687 2 0.477242 0.0514534 0.505788
162 2 0.476095 0.0674783 0.514828
163 1 0.467132 0.0809151 0.493016
708 2 0.491906 0.0441917 0.509012
624 2 0.490656 0.0603664 0.517986
625 1 0.503693 0.0689978 0.522185
626 1 0.51631 0.0754066 0.509498
627 1 0.529495 0.0802403 0.485669
628 1 0.543124 0.0838398 0.517498
327 1 0.604484 0.076123 0.489884
328 1 0.595199 0.0863772 0.496792
326 1 0.611466 0.0639003 0.496732
325 1 0.616471 0.0508551 0.499836
402 1 0.748152 0.0435836 0.490324
401 1 0.75618 0.0550878 0.498458
778 2 0.762834 0.0821911 0.477588
400 2 0.763723 0.0665688 0.503859
288 2 0.776898 0.0753551 0.500597
846 1 0.826117 0.0458603 0.506531
845 1 0.837533 0.0541479 0.512327
844 1 0.849647 0.0611375 0.509725
843 4 0.861529 0.068466 0.491248
842 1 0.873394 0.0751286 0.523814
841 2 0.885106 0.0827588 0.484496
438 1 0.0529861 0.0939811 0.509905
437 1 0.0582176 0.106955 0.494505
436 4 0.0657457 0.118849 0.477451
435 2 0.0742398 0.129853 0.498435
428 2 0.059057 0.126937 0.506118
928 1 0.0932636 0.0910702 0.499839
927 4 0.0932377 0.105269 0.518561
926 4 0.0914268 0.119314 0.48817
263 1 0.115314 0.124009 0.515488
262 1 0.102539 0.1293 0.51748
264 1 0.127211 0.116411 0.510958
266 3 0.149849 0.100528 0.52693
265 1 0.137961 0.107612 0.505889
933 1 0.241636 0.0941683 0.496221
935 1 0.247287 0.121457 0.498319
934 4 0.243573 0.107684 0.494119
165 1 0.453812 0.105619 0.476103
164 1 0.459683 0.0928375 0.482908
166 1 0.448868 0.11855 0.487336
629 1 0.556203 0.0886735 0.496221
630 3 0.568776 0.0947606 0.482869
329 3 0.584529 0.0953476 0.491352
567 3 0.576167 0.108691 0.502635
566 1 0.574327 0.122628 0.499652
918 2 0.676163 0.1126 0.496259
919 1 0.670425 0.125158 0.50102
781 1 0.736396 0.115048 0.492989
782 1 0.72651 0.124919 0.4827
289 4 0.779783 0.0890401 0.488152
780 1 0.745037 0.104064 0.499668
779 4 0.753589 0.0927225 0.516719
290 1 0.784516 0.101887 0.50138
291 4 0.787951 0.115585 0.495248
292 4 0.791669 0.128881 0.512256
753 1 0.84199 0.119695 0.487798
752 1 0.853113 0.110698 0.491759
751 4 0.865067 0.103741 0.493795
754 1 0.832335 0.12998 0.492666
484 2 0.891984 0.0970048 0.497825
750 2 0.876405 0.0960074 0.510217
485 1 0.904042 0.104196 0.495341
486 1 0.915262 0.11245 0.492147
487 1 0.927169 0.119612 0.481299
488 4 0.939189 0.126917 0.494834
430 1 0.0328711 0.135915 0.509744
431 1 0.0191974 0.138802 0.496999
432 1 0.00507839 0.140055 0.503301
429 4 0.0459775 0.131095 0.519457
743 2 0.0639321 0.14177 0.516937
744 1 0.0707637 0.153946 0.469407
745 1 0.0767989 0.166773 0.485332
260 2 0.0793223 0.144655 0.487729
925 2 0.0896881 0.133043 0.510422
261 4 0.0900922 0.135391 0.501165
936 1 0.251395 0.134704 0.526322
937 1 0.254814 0.148327 0.492348
938 3 0.258608 0.161644 0.513546
686 3 0.273403 0.166804 0.503915
685 1 0.287212 0.169722 0.49654
684 1 0.300866 0.173618 0.509048
797 1 0.425458 0.165973 0.496489
796 1 0.412731 0.172027 0.496527
798 3 0.438072 0.160175 0.483123
167 1 0.444392 0.131885 0.50045
168 3 0.438948 0.144592 0.503917
252 3 0.452177 0.153188 0.512794
251 4 0.465214 0.157764 0.493705
250 1 0.477716 0.163244 0.492443
249 1 0.489938 0.169207 0.486622
563 1 0.56107 0.161861 0.503248
562 1 0.553354 0.173399 0.510436
564 1 0.566627 0.149508 0.492554
565 4 0.571109 0.136355 0.508581
922 1 0.649785 0.161025 0.518449
923 1 0.641457 0.17243 0.529049
921 4 0.657483 0.149637 0.487423
920 1 0.664304 0.137665 0.521201
783 1 0.716482 0.134519 0.497203
784 3 0.707741 0.145599 0.490551
293 1 0.794348 0.142811 0.511971
294 3 0.798789 0.155832 0.505065
756 3 0.813761 0.151041 0.493197
889 3 0.825293 0.161646 0.49334
112 3 0.810387 0.16641 0.493757
755 4 0.822961 0.140617 0.505055
888 1 0.834691 0.172327 0.504071
489 1 0.951022 0.134137 0.492547
433 1 0.991305 0.141914 0.480498
490 3 0.962197 0.142281 0.493041
434 3 0.977435 0.145333 0.508108
7 3 0.967256 0.157253 0.506813
6 1 0.966588 0.171324 0.501882
746 1 0.0840064 0.178586 0.495356
747 1 0.0892943 0.191598 0.49364
748 4 0.0923377 0.205382 0.498823
669 4 0.233309 0.207757 0.492057
670 1 0.243114 0.198266 0.512037
671 1 0.252145 0.187418 0.4956
668 1 0.222514 0.216626 0.50076
672 3 0.261425 0.177002 0.469822
683 1 0.313879 0.178485 0.495914
682 1 0.327063 0.183545 0.515242
681 1 0.339533 0.189933 0.499571
680 2 0.352637 0.194197 0.505168
793 1 0.377859 0.194938 0.499891
792 2 0.365662 0.202456 0.494142
794 1 0.389466 0.187059 0.500781
795 1 0.400703 0.179299 0.502094
248 1 0.502808 0.174551 0.508244
247 4 0.516269 0.178366 0.489725
246 2 0.529351 0.183397 0.513564
561 2 0.544997 0.184398 0.491162
491 2 0.536388 0.197411 0.493695
492 1 0.531165 0.210468 0.517214
924 3 0.633537 0.183797 0.525948
315 3 0.622169 0.194474 0.473642
314 1 0.617098 0.207129 0.511782
512 2 0.6572 0.214954 0.485013
108 4 0.7806 0.214048 0.47257
111 4 0.801481 0.177274 0.493606
109 1 0.787345 0.201535 0.494923
110 1 0.794011 0.189155 0.511299
887 1 0.844378 0.182516 0.490172
886 1 0.854914 0.191404 0.517575
885 4 0.865295 0.20087 0.501849
884 1 0.875627 0.210307 0.492347
5 1 0.968051 0.185271 0.4995
4 1 0.971712 0.198724 0.503294
3 1 0.977336 0.211386 0.485564
205 1 0.0211112 0.233283 0.487203
204 2 0.00751673 0.236818 0.480233
206 1 0.0345455 0.228741 0.49305
208 4 0.062426 0.226185 0.512517
207 4 0.0481634 0.226417 0.516031
209 1 0.076423 0.228295 0.525576
749 3 0.0969375 0.218637 0.511103
210 3 0.0896681 0.23238 0.522237
818 1 0.0980917 0.260062 0.511753
819 3 0.0981886 0.245491 0.478534
147 3 0.105477 0.231684 0.495271
146 1 0.118951 0.227465 0.506459
145 1 0.132899 0.225983 0.496377
144 1 0.146549 0.227812 0.491135
143 1 0.160471 0.230399 0.510616
142 1 0.173653 0.235224 0.503427
141 2 0.186508 0.240829 0.472674
666 2 0.201158 0.235213 0.492931
967 2 0.198803 0.250739 0.497844
667 1 0.211719 0.225463 0.495807
176 2 0.213338 0.245077 0.504338
981 2 0.211036 0.260493 0.488456
177 4 0.226193 0.251045 0.49092
178 1 0.23966 0.254727 0.494055
179 1 0.253502 0.256623 0.514206
180 1 0.267319 0.257671 0.48919
181 4 0.281351 0.256997 0.508946
182 3 0.295392 0.257697 0.50767
721 3 0.310884 0.254912 0.499487
720 1 0.324571 0.256252 0.487643
719 1 0.338512 0.258791 0.503201
496 4 0.501793 0.257997 0.494583
495 4 0.510162 0.246953 0.498483
494 1 0.518352 0.235537 0.495545
493 1 0.525332 0.223397 0.505288
311 1 0.602858 0.246453 0.498375
310 4 0.600459 0.260345 0.484324
312 1 0.606633 0.232966 0.49114
313 1 0.611961 0.220104 0.49827
513 1 0.662406 0.227948 0.49153
514 1 0.665664 0.241517 0.51605
515 1 0.668072 0.25514 0.487596
554 2 0.762932 0.25351 0.5074
106 2 0.771631 0.240387 0.489214
107 1 0.775442 0.226872 0.495524
555 1 0.750239 0.258837 0.507651
169 2 0.778473 0.254607 0.531611
883 2 0.884702 0.220628 0.495531
304 1 0.877463 0.260007 0.499414
303 1 0.884415 0.248016 0.498664
302 2 0.890027 0.235469 0.496545
463 2 0.997876 0.249272 0.506644
1 2 0.991904 0.234777 0.517513
2 1 0.983832 0.223585 0.486557
815 1 0.0887182 0.300743 0.506568
816 1 0.0928185 0.287299 0.512962
817 1 0.0964153 0.273984 0.490934
968 1 0.198198 0.264814 0.492609
969 4 0.196573 0.279009 0.487942
970 4 0.195017 0.293161 0.506926
983 4 0.209728 0.288075 0.492252
982 4 0.211356 0.274317 0.525753
984 1 0.20869 0.302036 0.490187
718 1 0.351903 0.263698 0.509914
717 1 0.364756 0.269119 0.478086
716 1 0.37659 0.276206 0.484828
715 2 0.387425 0.285191 0.496489
659 2 0.393139 0.299803 0.526275
253 2 0.403024 0.287615 0.506902
254 1 0.417021 0.285166 0.510033
827 2 0.408466 0.302323 0.52167
255 1 0.430806 0.283656 0.502685
256 1 0.444732 0.281778 0.503614
257 4 0.45864 0.281555 0.491752
258 1 0.472601 0.282436 0.494221
497 3 0.494289 0.269563 0.469364
259 3 0.486529 0.283262 0.506767
882 3 0.502366 0.28304 0.488255
881 1 0.516504 0.283458 0.489817
880 1 0.530431 0.284374 0.497632
879 4 0.544489 0.284004 0.502126
878 1 0.558519 0.285672 0.504398
877 1 0.572771 0.286061 0.481651
876 2 0.586587 0.28533 0.484666
309 2 0.597147 0.273894 0.483306
799 2 0.601798 0.28898 0.504999
800 1 0.615939 0.291122 0.510513
801 1 0.629453 0.294414 0.506122
802 1 0.642658 0.298147 0.501225
516 1 0.671479 0.26863 0.492405
517 4 0.675789 0.282195 0.489292
518 3 0.681162 0.294934 0.51246
803 4 0.655643 0.302853 0.520105
560 3 0.695426 0.301302 0.492832
559 1 0.704106 0.290151 0.516533
557 4 0.725914 0.272184 0.49356
558 1 0.714515 0.280391 0.510692
556 1 0.737648 0.264714 0.499107
170 1 0.789572 0.263242 0.466128
171 1 0.800348 0.272162 0.479238
172 1 0.810055 0.281916 0.492095
173 4 0.820781 0.29128 0.499628
174 4 0.830711 0.300915 0.51501
307 1 0.86039 0.298485 0.488407
306 4 0.865801 0.285426 0.511819
305 4 0.872143 0.272628 0.502108
464 1 0.990982 0.26147 0.485575
465 1 0.982558 0.272372 0.484933
466 1 0.973252 0.28299 0.494127
467 4 0.964356 0.293857 0.482892
72 1 0.00333178 0.346155 0.508692
813 2 0.0788882 0.326444 0.497849
814 1 0.0832518 0.313296 0.474013
960 2 0.0871479 0.339829 0.498424
78 2 0.0946898 0.325795 0.500431
79 4 0.108244 0.329107 0.49185
80 1 0.121926 0.332091 0.524248
81 1 0.136074 0.334113 0.485679
82 1 0.149839 0.33668 0.538529
83 1 0.163776 0.338557 0.495385
84 3 0.177422 0.341793 0.504921
971 4 0.193495 0.306794 0.486775
972 4 0.192276 0.320977 0.499581
973 3 0.191408 0.334944 0.502744
986 1 0.206598 0.329657 0.487963
985 4 0.206876 0.315732 0.494964
987 3 0.204377 0.343561 0.47631
662 1 0.372832 0.335817 0.52397
663 4 0.363616 0.346326 0.51091
661 1 0.381388 0.324673 0.50151
660 1 0.388381 0.312832 0.511735
828 4 0.418074 0.312385 0.496173
829 1 0.42739 0.3227 0.487944
830 1 0.437687 0.332367 0.483292
831 1 0.44762 0.342201 0.481322
448 3 0.61046 0.338317 0.507416
804 1 0.668951 0.307307 0.495626
805 3 0.682611 0.310332 0.475078
462 3 0.69662 0.316958 0.520111
461 1 0.704485 0.328564 0.493524
460 1 0.713138 0.339635 0.500568
277 1 0.809754 0.343114 0.520936
278 1 0.822095 0.336761 0.503436
175 3 0.839577 0.311612 0.489835
279 1 0.834223 0.33015 0.493276
280 3 0.847275 0.325163 0.50305
308 3 0.855457 0.311649 0.503419
385 3 0.862922 0.325635 0.516489
384 1 0.872787 0.335504 0.505718
383 1 0.882398 0.345447 0.493581
301 3 0.943344 0.330273 0.520562
300 1 0.938955 0.343577 0.484897
469 3 0.945933 0.314743 0.520168
468 1 0.956144 0.30529 0.484381
71 2 0.999784 0.332855 0.522776
75 1 0.0159774 0.385647 0.50688
74 1 0.0100077 0.372891 0.492034
73 1 0.00574963 0.35992 0.490594
964 1 0.0590788 0.388751 0.504354
963 4 0.0658966 0.376378 0.515707
962 1 0.072611 0.364038 0.504157
961 1 0.0797035 0.352037 0.513259
809 1 0.169008 0.387187 0.497345
810 1 0.17595 0.375171 0.504269
811 4 0.182922 0.362747 0.517703
812 3 0.190444 0.350594 0.499303
602 3 0.203349 0.359239 0.494395
601 1 0.214115 0.368288 0.514743
600 1 0.224388 0.377532 0.485338
599 1 0.233857 0.388032 0.507296
665 3 0.34819 0.369758 0.489333
664 1 0.355785 0.357767 0.509003
677 4 0.380517 0.388642 0.497196
676 1 0.389443 0.378314 0.529405
673 2 0.419807 0.349387 0.501911
675 1 0.399244 0.36828 0.497248
674 1 0.409315 0.358679 0.510369
832 4 0.45703 0.352364 0.489731
833 3 0.465905 0.363231 0.511002
20 1 0.454999 0.38578 0.495632
21 3 0.452696 0.371789 0.497829
581 3 0.466613 0.378919 0.490109
578 1 0.504828 0.36335 0.505458
579 1 0.491786 0.367632 0.490581
580 4 0.478829 0.372474 0.505544
577 1 0.518218 0.359819 0.489006
575 2 0.545759 0.35298 0.50329
576 1 0.532238 0.357025 0.518796
446 1 0.602394 0.365091 0.503654
445 1 0.599977 0.378935 0.501934
447 1 0.606131 0.351682 0.493193
459 1 0.723822 0.348802 0.49557
458 1 0.735594 0.356581 0.476342
457 1 0.747503 0.363574 0.507595
456 2 0.759629 0.369906 0.488656
155 2 0.770433 0.381324 0.508629
274 2 0.774971 0.366388 0.490407
276 1 0.797748 0.350154 0.500721
275 1 0.785985 0.357594 0.491953
382 1 0.891384 0.356317 0.513224
381 4 0.899311 0.368001 0.490973
380 4 0.904468 0.381009 0.48223
297 4 0.920854 0.381782 0.509082
299 1 0.933814 0.356488 0.492378
298 1 0.927556 0.369257 0.51116
76 1 0.0215887 0.398426 0.510433
77 3 0.0275756 0.411064 0.500512
588 3 0.0349109 0.424949 0.518719
966 3 0.0431512 0.411816 0.525072
965 4 0.0518231 0.400882 0.500702
903 3 0.0506014 0.425606 0.533857
902 1 0.0644812 0.427003 0.499141
901 1 0.0784527 0.426124 0.491814
900 1 0.0925072 0.424658 0.512408
899 1 0.106408 0.424185 0.524378
898 4 0.120504 0.424873 0.500639
897 2 0.134358 0.427702 0.493138
806 2 0.149567 0.424339 0.515058
807 1 0.156168 0.412145 0.499184
808 1 0.16176 0.399078 0.501092
598 4 0.24391 0.397625 0.491059
597 1 0.253266 0.407927 0.494735
596 2 0.261654 0.41916 0.488376
695 1 0.283912 0.431095 0.500911
696 1 0.297913 0.429009 0.493394
694 2 0.26991 0.432386 0.48224
697 1 0.311384 0.425477 0.492724
698 1 0.32495 0.421963 0.504637
699 1 0.338678 0.420476 0.508019
678 1 0.37297 0.400374 0.496114
679 3 0.367123 0.412973 0.484699
700 3 0.35273 0.41876 0.50154
658 3 0.365414 0.42837 0.538557
17 1 0.459609 0.427094 0.477077
18 1 0.459716 0.413139 0.49172
19 4 0.458346 0.39922 0.501107
444 1 0.597837 0.392753 0.47193
442 2 0.594731 0.42069 0.498963
443 1 0.595821 0.406782 0.484164
988 2 0.605463 0.432171 0.498739
156 1 0.774907 0.394755 0.497301
157 1 0.781025 0.407298 0.512319
158 1 0.788718 0.419107 0.48471
159 4 0.796507 0.430883 0.508097
823 1 0.862392 0.432116 0.507735
822 4 0.872943 0.422893 0.5167
379 2 0.906192 0.394902 0.49487
820 2 0.897502 0.40823 0.505936
821 1 0.88466 0.415121 0.506833
295 2 0.913223 0.408794 0.535769
296 1 0.917587 0.39534 0.48908
587 1 0.0272593 0.436607 0.515902
586 4 0.0179332 0.446814 0.506283
585 4 0.00691116 0.455342 0.500825
25 1 0.113733 0.467811 0.513226
24 1 0.124793 0.459113 0.52318
26 4 0.104068 0.47761 0.496971
953 2 0.160219 0.43587 0.490993
22 2 0.145063 0.439394 0.498995
23 1 0.135784 0.450092 0.482929
954 4 0.171448 0.444297 0.495283
955 4 0.18237 0.452738 0.493843
956 1 0.193066 0.461835 0.497654
957 4 0.20443 0.470309 0.492855
657 1 0.374726 0.438771 0.490821
656 1 0.385726 0.44718 0.495434
655 1 0.39831 0.453769 0.496168
654 1 0.411424 0.458348 0.499644
653 1 0.425175 0.461118 0.506459
16 1 0.457871 0.440925 0.498677
652 2 0.439331 0.460954 0.501012
15 2 0.453757 0.454396 0.510317
386 2 0.452146 0.469986 0.491327
239 2 0.590071 0.435659 0.516073
241 1 0.585899 0.463332 0.507199
240 4 0.587353 0.449405 0.489008
242 1 0.587533 0.477282 0.493697
989 1 0.617261 0.440067 0.501644
990 1 0.627365 0.449583 0.487218
991 1 0.636597 0.460026 0.493292
992 1 0.645019 0.471465 0.505286
117 1 0.776929 0.47583 0.491834
160 1 0.804581 0.442343 0.487356
161 3 0.81361 0.45281 0.497763
119 3 0.802396 0.463729 0.52795
98 3 0.817437 0.467888 0.4994
118 4 0.789951 0.470279 0.507814
826 3 0.828674 0.457021 0.488583
824 1 0.851332 0.440663 0.494941
97 1 0.830046 0.473509 0.50333
825 4 0.840281 0.449277 0.517596
96 4 0.843415 0.477464 0.505194
584 4 0.995777 0.463443 0.518792
583 1 0.985602 0.472991 0.492454
359 4 0.00748179 0.484981 0.498863
360 1 0.0213725 0.487593 0.518503
361 1 0.0351765 0.490719 0.480701
362 1 0.0484911 0.494703 0.506496
363 1 0.0612641 0.500246 0.490944
364 3 0.0728532 0.508079 0.493521
28 3 0.0848293 0.497988 0.501676
238 3 0.0876451 0.513249 0.51617
27 4 0.0952255 0.488271 0.492306
237 1 0.101726 0.513043 0.505251
236 1 0.115156 0.515677 0.490557
235 1 0.12814 0.521067 0.508097
958 1 0.214889 0.479366 0.491643
959 3 0.225046 0.488919 0.483196
637 3 0.23755 0.498312 0.513323
636 1 0.249204 0.506471 0.535527
635 1 0.259752 0.515079 0.482782
757 2 0.313312 0.491843 0.507777
760 4 0.343283 0.521403 0.484113
758 1 0.322912 0.501976 0.497262
759 1 0.333104 0.511878 0.512913
387 1 0.459058 0.48217 0.499114
388 1 0.464242 0.49521 0.500839
389 1 0.467762 0.508691 0.497216
243 1 0.592472 0.490429 0.51346
244 1 0.599198 0.502724 0.501945
245 3 0.608908 0.513847 0.484868
644 3 0.624081 0.51025 0.504531
643 1 0.633261 0.52054 0.489465
993 1 0.653864 0.482261 0.510823
994 3 0.661379 0.493863 0.500291
42 3 0.675736 0.500273 0.49451
41 1 0.676539 0.514569 0.515201
114 4 0.737393 0.486692 0.502349
113 2 0.723542 0.487825 0.483307
116 1 0.764047 0.480617 0.50647
115 4 0.750731 0.48425 0.502707
126 3 0.806059 0.478716 0.492067
125 4 0.806045 0.492664 0.488507
124 1 0.8079 0.506513 0.470752
123 1 0.810841 0.519947 0.5042
95 1 0.856671 0.481492 0.499482
94 1 0.870021 0.485776 0.483396
93 1 0.883695 0.488566 0.489356
92 2 0.896947 0.492708 0.505563
974 2 0.910948 0.499548 0.484471
975 1 0.915439 0.51259 0.486881
358 2 0.993292 0.484444 0.497639
582 2 0.977508 0.484288 0.490374
190 2 0.985317 0.498045 0.512448
191 1 0.982283 0.511778 0.495326
371 3 0.0759264 0.523586 0.507479
369 1 0.066046 0.549867 0.503293
370 1 0.0715895 0.537388 0.49944
368 1 0.0618589 0.563434 0.512022
234 1 0.13962 0.529147 0.490325
233 1 0.149209 0.538916 0.492525
232 2 0.15765 0.550277 0.50288
869 2 0.15244 0.565173 0.512811
57 2 0.167823 0.562258 0.49289
634 1 0.269338 0.525525 0.485888
633 1 0.277548 0.536826 0.510468
632 1 0.283546 0.549331 0.502327
631 2 0.2888 0.562404 0.496695
761 1 0.352723 0.531655 0.504083
762 1 0.361428 0.54268 0.49013
763 3 0.370266 0.553308 0.521868
390 1 0.469759 0.522644 0.509251
391 1 0.471716 0.536283 0.508623
392 3 0.474301 0.550111 0.498079
1008 3 0.47902 0.565084 0.491324
335 1 0.597448 0.541185 0.504698
334 1 0.588618 0.55207 0.499674
336 3 0.60477 0.529108 0.496198
333 1 0.581057 0.563548 0.496978
35 3 0.619959 0.525472 0.480483
34 4 0.623863 0.539823 0.515436
642 1 0.638135 0.532728 0.498824
641 4 0.638447 0.546899 0.484161
33 4 0.624635 0.554492 0.506355
640 4 0.63957 0.561131 0.471914
40 1 0.676626 0.528794 0.494163
39 1 0.67554 0.54293 0.491587
38 1 0.671587 0.556322 0.495802
122 1 0.815284 0.533041 0.496985
121 1 0.821677 0.54555 0.508739
120 2 0.826303 0.558802 0.494044
43 2 0.840901 0.564017 0.518127
44 1 0.855081 0.565076 0.502105
976 1 0.918829 0.526229 0.488175
977 1 0.923929 0.539161 0.512344
978 1 0.928204 0.552489 0.480371
195 4 0.959205 0.562399 0.496267
192 1 0.978107 0.52507 0.490619
193 4 0.973434 0.538338 0.482898
194 1 0.966615 0.550686 0.529423
451 1 0.00262933 0.600634 0.499618
450 1 0.0157234 0.604487 0.533463
449 2 0.0295319 0.607282 0.491354
365 2 0.0438466 0.600943 0.498318
367 4 0.0567849 0.576271 0.486928
366 1 0.0508666 0.588801 0.521865
870 1 0.146843 0.577781 0.497512
871 1 0.143025 0.591235 0.519113
872 1 0.140317 0.604946 0.48688
58 4 0.171056 0.57587 0.522958
59 4 0.174786 0.589195 0.505608
60 1 0.180226 0.601804 0.513692
479 1 0.260814 0.59497 0.513655
480 1 0.252141 0.605576 0.483076
477 2 0.282254 0.576747 0.504666
478 1 0.270923 0.585657 0.481008
645 2 0.297694 0.575427 0.479171
646 1 0.309313 0.584098 0.500701
647 1 0.318388 0.594932 0.499584
648 4 0.324469 0.607581 0.499336
1007 1 0.470961 0.57656 0.490736
1005 1 0.455132 0.59966 0.517858
1006 1 0.463417 0.588411 0.490333
330 2 0.562313 0.600996 0.488596
331 1 0.568194 0.588274 0.507326
332 1 0.573657 0.575655 0.506168
32 1 0.624708 0.568807 0.492762
31 4 0.627995 0.581856 0.50638
30 1 0.634741 0.593781 0.499951
639 4 0.642261 0.575119 0.509475
29 2 0.644652 0.603447 0.491498
638 2 0.647416 0.588121 0.497527
36 2 0.66214 0.58273 0.484143
37 1 0.666315 0.569283 0.504457
407 2 0.659478 0.598146 0.492947
408 1 0.67065 0.607556 0.503582
267 2 0.737598 0.594091 0.518901
268 1 0.746197 0.605183 0.487783
570 1 0.814498 0.598031 0.480511
569 4 0.821426 0.58593 0.50474
568 2 0.829059 0.574319 0.503914
45 1 0.868674 0.567015 0.515604
46 1 0.882401 0.57051 0.514386
47 1 0.896028 0.5737 0.504635
48 4 0.909445 0.577966 0.48803
979 4 0.931666 0.566246 0.507799
980 3 0.936529 0.579049 0.506015
49 3 0.921739 0.584238 0.507711
854 3 0.933547 0.594486 0.495981
455 3 0.948269 0.589458 0.501889
196 3 0.951378 0.574102 0.469479
853 1 0.926692 0.606541 0.506458
454 1 0.962118 0.590667 0.497808
453 1 0.97584 0.593461 0.514232
452 1 0.989153 0.59684 0.491312
393 2 0.0281069 0.622744 0.513283
394 4 0.0252696 0.636313 0.495819
395 4 0.0219729 0.649737 0.516978
855 2 0.0424024 0.616559 0.497732
856 1 0.0515044 0.627337 0.485982
857 1 0.062501 0.636331 0.495235
858 1 0.0746348 0.643239 0.495447
859 1 0.0874869 0.648549 0.491786
860 1 0.101173 0.651184 0.512605
875 3 0.128605 0.644437 0.503192
874 1 0.134656 0.631891 0.501291
873 1 0.138653 0.618803 0.487944
728 3 0.142307 0.651987 0.508037
61 1 0.187351 0.613807 0.515035
62 1 0.196059 0.624864 0.486948
63 3 0.206874 0.633524 0.51551
481 1 0.24441 0.617466 0.489595
482 1 0.234463 0.627266 0.502537
483 3 0.222681 0.635115 0.511674
649 1 0.327958 0.621361 0.507299
650 4 0.329484 0.635029 0.486177
651 3 0.329416 0.648985 0.489432
773 1 0.386552 0.638188 0.488911
774 1 0.373553 0.642993 0.494564
775 4 0.360694 0.64822 0.47955
772 1 0.400054 0.635889 0.503752
771 2 0.413711 0.635696 0.511206
1002 2 0.428867 0.632074 0.503547
414 2 0.424687 0.647148 0.499734
1003 1 0.438685 0.621983 0.482872
1004 1 0.447171 0.611131 0.518564
357 3 0.472857 0.644349 0.500543
356 1 0.485019 0.636989 0.499518
355 1 0.497297 0.629958 0.505091
354 1 0.510578 0.624533 0.514742
351 2 0.550653 0.611421 0.493516
353 1 0.523917 0.620254 0.496058
352 1 0.537057 0.615421 0.485884
547 2 0.56574 0.616104 0.490171
548 1 0.573595 0.627789 0.507638
549 4 0.579757 0.640072 0.5026
550 1 0.586845 0.652046 0.508549
409 1 0.681445 0.616741 0.493227
410 1 0.691751 0.626471 0.495975
411 4 0.700501 0.636788 0.495535
412 1 0.708587 0.647753 0.492145
269 4 0.754057 0.616751 0.512325
270 1 0.763406 0.627257 0.490454
271 4 0.771391 0.638748 0.491882
272 4 0.779287 0.650332 0.501426
571 1 0.809214 0.610998 0.496915
572 1 0.80442 0.623987 0.491952
573 1 0.800586 0.63784 0.50756
574 3 0.796767 0.651067 0.496596
850 1 0.91306 0.646161 0.492127
852 1 0.921072 0.61937 0.511876
851 1 0.916899 0.63276 0.496007
396 1 0.0188557 0.663397 0.472074
397 1 0.0161981 0.677174 0.507062
398 1 0.0124606 0.690622 0.504931
861 3 0.115289 0.652398 0.474688
623 3 0.129046 0.660105 0.508069
622 1 0.133298 0.673188 0.498968
727 4 0.155995 0.654191 0.468547
726 1 0.16945 0.657743 0.518413
621 4 0.136304 0.686902 0.502048
725 1 0.182963 0.661983 0.504165
724 1 0.196305 0.666517 0.540376
723 1 0.209741 0.670049 0.494183
722 2 0.223725 0.673531 0.519963
940 1 0.25249 0.668056 0.503686
939 2 0.239368 0.673002 0.507475
127 2 0.231906 0.686795 0.493428
941 1 0.265961 0.663912 0.506902
943 1 0.293745 0.660098 0.501018
942 1 0.279631 0.661069 0.509922
944 1 0.30776 0.660302 0.504086
945 3 0.321598 0.662706 0.502365
203 3 0.32949 0.676359 0.510263
777 3 0.337234 0.662602 0.514334
202 1 0.332901 0.690206 0.487621
776 1 0.348537 0.654743 0.489683
415 1 0.430557 0.659657 0.485658
416 1 0.436019 0.67238 0.493542
417 1 0.441519 0.685276 0.501104
551 4 0.5926 0.665341 0.508816
552 1 0.597708 0.678278 0.501357
553 3 0.602191 0.691417 0.519179
413 3 0.7158 0.659808 0.502361
473 1 0.738296 0.693164 0.492255
475 1 0.762097 0.678827 0.486178
474 1 0.74992 0.685753 0.501616
476 3 0.775185 0.673609 0.51368
273 3 0.78605 0.662279 0.501219
56 3 0.801169 0.666107 0.491946
609 3 0.790467 0.677539 0.514579
55 4 0.815029 0.664152 0.504123
608 1 0.799301 0.688682 0.510009
54 1 0.82907 0.664111 0.486388
53 1 0.842895 0.665438 0.500967
52 4 0.856461 0.667888 0.48391
51 1 0.870177 0.671049 0.508035
50 2 0.883784 0.674117 0.482557
729 2 0.894562 0.685512 0.513807
848 2 0.899074 0.670424 0.50232
849 1 0.906754 0.658632 0.486825
540 2 0.948215 0.695321 0.513535
399 3 0.0093538 0.704369 0.496625
620 1 0.139488 0.700466 0.499784
619 1 0.142374 0.714292 0.496615
618 4 0.144706 0.727677 0.505832
128 1 0.232771 0.701102 0.491639
129 1 0.235437 0.714515 0.498507
130 1 0.237546 0.728335 0.485652
201 1 0.335509 0.703796 0.481309
200 1 0.336271 0.718193 0.508923
199 1 0.338238 0.732219 0.487726
286 4 0.422347 0.736769 0.492755
418 1 0.445271 0.699045 0.50671
419 1 0.448013 0.712667 0.477069
420 3 0.449653 0.726611 0.508456
287 3 0.435972 0.734287 0.48601
539 3 0.595676 0.705632 0.50938
538 1 0.587026 0.716653 0.496477
537 1 0.57933 0.728378 0.498583
868 3 0.611076 0.704225 0.511264
867 1 0.624497 0.707296 0.499887
866 1 0.637589 0.712335 0.49724
865 1 0.650898 0.715943 0.522528
864 1 0.664204 0.720164 0.483007
863 1 0.678052 0.722012 0.500695
862 2 0.691775 0.725318 0.51475
472 4 0.727626 0.701882 0.473422
471 1 0.716465 0.710871 0.487791
470 2 0.707023 0.721162 0.496367
526 2 0.702892 0.736375 0.483888
607 4 0.806024 0.701096 0.4923
606 4 0.811169 0.713864 0.453572
605 1 0.816229 0.726855 0.507354
730 1 0.896563 0.699716 0.517431
731 1 0.899823 0.71307 0.499374
732 4 0.902665 0.726932 0.503336
543 4 0.946571 0.736841 0.50123
542 4 0.948275 0.722998 0.483541
541 1 0.948331 0.709296 0.506824
69 1 0.0107689 0.758552 0.494436
68 1 0.00835238 0.772258 0.519613
70 3 0.0130121 0.744667 0.521046
617 2 0.147658 0.7415 0.508138
131 4 0.240569 0.742029 0.514108
132 1 0.244764 0.755547 0.501482
133 3 0.251272 0.768257 0.507589
705 1 0.291327 0.776894 0.513068
707 3 0.263414 0.778055 0.491603
706 1 0.277381 0.77757 0.509981
704 1 0.305113 0.775365 0.489473
198 4 0.341702 0.745803 0.493085
703 1 0.31884 0.774049 0.489675
702 1 0.332748 0.773116 0.522676
701 2 0.346504 0.774674 0.507605
197 2 0.346606 0.759062 0.532671
281 2 0.36011 0.766848 0.498126
282 1 0.370978 0.757666 0.493496
519 2 0.359915 0.782601 0.486506
283 1 0.382631 0.750144 0.512233
285 1 0.408816 0.740104 0.51724
284 1 0.395372 0.744717 0.503221
770 3 0.449569 0.742497 0.521656
769 1 0.462072 0.748532 0.496767
768 4 0.474422 0.754598 0.500095
767 1 0.487404 0.760483 0.503309
766 1 0.500693 0.764913 0.483015
765 1 0.514126 0.769518 0.498332
764 2 0.527704 0.772958 0.482049
533 2 0.543327 0.771134 0.506587
534 1 0.551261 0.759692 0.502933
535 1 0.560954 0.749692 0.489028
536 4 0.57074 0.739565 0.496608
527 1 0.708631 0.749174 0.517173
528 4 0.714339 0.76195 0.501342
529 1 0.719715 0.774776 0.518194
604 1 0.820831 0.740332 0.501865
736 2 0.818482 0.768852 0.481054
737 1 0.807029 0.77645 0.509686
603 2 0.823831 0.75405 0.505053
99 2 0.833757 0.766224 0.49349
100 1 0.847367 0.769984 0.488585
101 4 0.860517 0.775026 0.504412
733 1 0.906278 0.740376 0.495742
102 1 0.873977 0.778471 0.505339
103 1 0.887882 0.78051 0.509587
734 4 0.911739 0.753138 0.521669
104 1 0.901675 0.781727 0.483448
105 3 0.915911 0.781352 0.509024
735 3 0.917814 0.765766 0.492439
545 1 0.937744 0.763497 0.482244
544 4 0.942849 0.750465 0.492528
546 3 0.930356 0.775383 0.481094
65 1 0.00603732 0.813707 0.505046
67 1 0.00573519 0.785783 0.51653
66 1 0.00489867 0.799653 0.49413
87 1 0.209592 0.823486 0.500024
91 3 0.248761 0.783928 0.497266
89 1 0.229873 0.804425 0.492307
90 1 0.239413 0.794365 0.507601
88 4 0.219475 0.813566 0.510287
521 1 0.368976 0.808917 0.490719
520 1 0.364179 0.795841 0.477311
522 1 0.37382 0.822036 0.504036
218 2 0.537038 0.78536 0.507537
219 1 0.541876 0.798427 0.500283
220 1 0.546903 0.811396 0.494118
221 1 0.552523 0.824428 0.514734
530 1 0.724484 0.787775 0.506041
531 1 0.728055 0.801151 0.50813
532 3 0.730426 0.814929 0.486913
742 3 0.745897 0.811725 0.505446
741 4 0.758228 0.804721 0.513229
740 1 0.770371 0.798019 0.53058
739 1 0.782832 0.79095 0.510929
738 1 0.794866 0.783791 0.511961
343 3 0.928396 0.790802 0.501271
342 1 0.936756 0.801969 0.522723
341 4 0.946797 0.811622 0.505338
340 1 0.95795 0.819824 0.51418
317 1 0.0222706 0.850187 0.508097
316 2 0.0105373 0.843142 0.49771
318 4 0.0339846 0.85843 0.481276
64 2 0.00870431 0.827604 0.515638
319 1 0.0455861 0.866114 0.489369
85 2 0.188016 0.841182 0.501837
86 1 0.198548 0.832508 0.508748
524 1 0.381977 0.848911 0.49568
523 1 0.378079 0.83535 0.494227
525 3 0.383789 0.862929 0.503725
840 3 0.501729 0.827099 0.495696
839 1 0.496671 0.839925 0.513144
838 1 0.493548 0.853623 0.492726
837 1 0.489551 0.866848 0.507841
222 1 0.558529 0.836759 0.483379
223 4 0.565346 0.848936 0.503224
224 3 0.572484 0.861084 0.489244
615 1 0.598996 0.868274 0.505577
347 1 0.697396 0.860819 0.510293
350 3 0.725822 0.829796 0.51144
349 1 0.715331 0.839039 0.50658
348 1 0.705672 0.84919 0.498139
154 3 0.741195 0.826614 0.524437
153 1 0.753343 0.832853 0.490054
152 1 0.764986 0.840734 0.519273
151 1 0.77672 0.848281 0.501224
150 1 0.788127 0.856402 0.505353
149 1 0.799153 0.865009 0.491265
138 1 0.942858 0.864512 0.516314
139 1 0.929306 0.867968 0.49684
137 1 0.956745 0.862032 0.497839
339 4 0.970243 0.826177 0.50416
337 2 0.995937 0.837097 0.503749
338 4 0.983113 0.83125 0.49833
134 2 0.997977 0.85262 0.496266
135 1 0.98398 0.855167 0.528029
136 1 0.970315 0.858422 0.498672
320 1 0.0562926 0.874786 0.50397
321 1 0.0661923 0.884462 0.503468
322 3 0.076138 0.894281 0.493647
228 1 0.344088 0.904222 0.47469
231 3 0.371277 0.872382 0.493488